# vtk DataFile Version 3.0
Header
ASCII
DATASET RECTILINEAR_GRID
DIMENSIONS 98 98 1
X_COORDINATES 98 double
0.030000 0.050000 0.070000 0.090000 0.110000 0.130000 0.150000 0.170000 0.190000 0.210000 0.230000 0.250000 0.270000 0.290000 0.310000 0.330000 0.350000 0.370000 0.390000 0.410000 0.430000 0.450000 0.470000 0.490000 0.510000 0.530000 0.550000 0.570000 0.590000 0.610000 0.630000 0.650000 0.670000 0.690000 0.710000 0.730000 0.750000 0.770000 0.790000 0.810000 0.830000 0.850000 0.870000 0.890000 0.910000 0.930000 0.950000 0.970000 0.990000 1.010000 1.030000 1.050000 1.070000 1.090000 1.110000 1.130000 1.150000 1.170000 1.190000 1.210000 1.230000 1.250000 1.270000 1.290000 1.310000 1.330000 1.350000 1.370000 1.390000 1.410000 1.430000 1.450000 1.470000 1.490000 1.510000 1.530000 1.550000 1.570000 1.590000 1.610000 1.630000 1.650000 1.670000 1.690000 1.710000 1.730000 1.750000 1.770000 1.790000 1.810000 1.830000 1.850000 1.870000 1.890000 1.910000 1.930000 1.950000 1.970000 
Y_COORDINATES 98 double
0.030000 0.050000 0.070000 0.090000 0.110000 0.130000 0.150000 0.170000 0.190000 0.210000 0.230000 0.250000 0.270000 0.290000 0.310000 0.330000 0.350000 0.370000 0.390000 0.410000 0.430000 0.450000 0.470000 0.490000 0.510000 0.530000 0.550000 0.570000 0.590000 0.610000 0.630000 0.650000 0.670000 0.690000 0.710000 0.730000 0.750000 0.770000 0.790000 0.810000 0.830000 0.850000 0.870000 0.890000 0.910000 0.930000 0.950000 0.970000 0.990000 1.010000 1.030000 1.050000 1.070000 1.090000 1.110000 1.130000 1.150000 1.170000 1.190000 1.210000 1.230000 1.250000 1.270000 1.290000 1.310000 1.330000 1.350000 1.370000 1.390000 1.410000 1.430000 1.450000 1.470000 1.490000 1.510000 1.530000 1.550000 1.570000 1.590000 1.610000 1.630000 1.650000 1.670000 1.690000 1.710000 1.730000 1.750000 1.770000 1.790000 1.810000 1.830000 1.850000 1.870000 1.890000 1.910000 1.930000 1.950000 1.970000 
Z_COORDINATES 1 double
0.0
POINT_DATA 9604
VECTORS velocity double
-0.000001	-0.000000	0.0
-0.000000	0.000001	0.0
0.000001	0.000001	0.0
0.000001	0.000001	0.0
0.000000	0.000000	0.0
0.000000	0.000000	0.0
-0.000000	-0.000000	0.0
-0.000000	-0.000000	0.0
-0.000000	-0.000000	0.0
-0.000000	-0.000000	0.0
-0.000000	-0.000000	0.0
-0.000000	-0.000000	0.0
-0.000000	-0.000000	0.0
-0.000000	-0.000000	0.0
0.000000	-0.000000	0.0
0.000000	-0.000000	0.0
0.000000	-0.000000	0.0
0.000000	-0.000000	0.0
0.000000	-0.000000	0.0
0.000000	-0.000000	0.0
0.000000	-0.000000	0.0
0.000000	-0.000000	0.0
0.000001	-0.000000	0.0
0.000001	-0.000000	0.0
0.000001	-0.000000	0.0
0.000001	-0.000000	0.0
0.000001	-0.000000	0.0
0.000002	-0.000000	0.0
0.000002	-0.000000	0.0
0.000003	-0.000000	0.0
0.000003	-0.000000	0.0
0.000004	-0.000000	0.0
0.000004	-0.000000	0.0
0.000005	-0.000000	0.0
0.000006	-0.000000	0.0
0.000007	-0.000000	0.0
0.000009	-0.000000	0.0
0.000010	-0.000000	0.0
0.000012	-0.000000	0.0
0.000014	-0.000000	0.0
0.000016	-0.000000	0.0
0.000019	-0.000000	0.0
0.000022	-0.000000	0.0
0.000026	-0.000000	0.0
0.000030	-0.000000	0.0
0.000034	-0.000000	0.0
0.000040	-0.000000	0.0
0.000046	-0.000000	0.0
0.000052	-0.000000	0.0
0.000060	-0.000000	0.0
0.000068	-0.000000	0.0
0.000078	-0.000000	0.0
0.000089	-0.000000	0.0
0.000101	-0.000000	0.0
0.000114	-0.000000	0.0
0.000130	-0.000000	0.0
0.000147	-0.000000	0.0
0.000165	-0.000000	0.0
0.000186	-0.000000	0.0
0.000210	-0.000000	0.0
0.000236	-0.000000	0.0
0.000264	-0.000000	0.0
0.000296	-0.000000	0.0
0.000331	-0.000000	0.0
0.000371	-0.000000	0.0
0.000414	-0.000000	0.0
0.000462	-0.000000	0.0
0.000515	-0.000000	0.0
0.000574	-0.000000	0.0
0.000640	-0.000000	0.0
0.000713	-0.000000	0.0
0.000794	-0.000000	0.0
0.000884	-0.000000	0.0
0.000985	-0.000000	0.0
0.001099	-0.000000	0.0
0.001226	-0.000000	0.0
0.001370	-0.000000	0.0
0.001533	-0.000000	0.0
0.001719	0.000000	0.0
0.001931	0.000000	0.0
0.002177	0.000000	0.0
0.002461	0.000000	0.0
0.002794	0.000000	0.0
0.003188	0.000001	0.0
0.003657	0.000001	0.0
0.004224	0.000001	0.0
0.004918	0.000002	0.0
0.005781	0.000002	0.0
0.006875	0.000002	0.0
0.008291	0.000003	0.0
0.010171	0.000004	0.0
0.012748	0.000004	0.0
0.016418	0.000005	0.0
0.021906	0.000006	0.0
0.030646	0.000007	0.0
0.045759	0.000008	0.0
0.074962	0.000006	0.0
0.141634	0.000002	0.0
0.000000	-0.000000	0.0
0.000001	0.000001	0.0
0.000001	0.000001	0.0
0.000001	0.000000	0.0
0.000000	-0.000000	0.0
0.000000	-0.000000	0.0
-0.000000	-0.000000	0.0
-0.000000	-0.000001	0.0
-0.000000	-0.000001	0.0
-0.000000	-0.000001	0.0
-0.000000	-0.000001	0.0
-0.000000	-0.000001	0.0
-0.000000	-0.000001	0.0
-0.000000	-0.000001	0.0
0.000000	-0.000001	0.0
0.000000	-0.000001	0.0
0.000000	-0.000001	0.0
0.000000	-0.000001	0.0
0.000000	-0.000001	0.0
0.000000	-0.000001	0.0
0.000001	-0.000001	0.0
0.000001	-0.000001	0.0
0.000001	-0.000001	0.0
0.000001	-0.000001	0.0
0.000002	-0.000001	0.0
0.000002	-0.000001	0.0
0.000002	-0.000001	0.0
0.000003	-0.000001	0.0
0.000003	-0.000001	0.0
0.000004	-0.000001	0.0
0.000005	-0.000001	0.0
0.000006	-0.000001	0.0
0.000007	-0.000001	0.0
0.000009	-0.000001	0.0
0.000010	-0.000001	0.0
0.000012	-0.000001	0.0
0.000014	-0.000001	0.0
0.000017	-0.000001	0.0
0.000020	-0.000001	0.0
0.000023	-0.000001	0.0
0.000027	-0.000001	0.0
0.000032	-0.000001	0.0
0.000037	-0.000001	0.0
0.000043	-0.000001	0.0
0.000049	-0.000001	0.0
0.000057	-0.000001	0.0
0.000066	-0.000001	0.0
0.000076	-0.000001	0.0
0.000087	-0.000001	0.0
0.000099	-0.000001	0.0
0.000114	-0.000001	0.0
0.000130	-0.000001	0.0
0.000148	-0.000001	0.0
0.000168	-0.000001	0.0
0.000190	-0.000001	0.0
0.000215	-0.000001	0.0
0.000243	-0.000001	0.0
0.000275	-0.000001	0.0
0.000309	-0.000001	0.0
0.000348	-0.000001	0.0
0.000391	-0.000001	0.0
0.000439	-0.000001	0.0
0.000492	-0.000001	0.0
0.000550	-0.000001	0.0
0.000615	-0.000001	0.0
0.000687	-0.000001	0.0
0.000766	-0.000001	0.0
0.000854	-0.000001	0.0
0.000952	-0.000001	0.0
0.001061	-0.000001	0.0
0.001181	-0.000001	0.0
0.001315	-0.000001	0.0
0.001465	-0.000001	0.0
0.001632	-0.000001	0.0
0.001818	-0.000001	0.0
0.002029	-0.000001	0.0
0.002265	-0.000001	0.0
0.002534	-0.000000	0.0
0.002839	-0.000000	0.0
0.003188	-0.000000	0.0
0.003589	-0.000000	0.0
0.004055	0.000000	0.0
0.004598	0.000000	0.0
0.005238	0.000001	0.0
0.005999	0.000001	0.0
0.006915	0.000002	0.0
0.008031	0.000002	0.0
0.009411	0.000003	0.0
0.011146	0.000004	0.0
0.013372	0.000005	0.0
0.016291	0.000006	0.0
0.020226	0.000007	0.0
0.025702	0.000008	0.0
0.033624	0.000010	0.0
0.045645	0.000011	0.0
0.065012	0.000011	0.0
0.098877	0.000009	0.0
0.166855	0.000004	0.0
0.000001	0.000001	0.0
0.000001	0.000001	0.0
0.000001	0.000001	0.0
0.000000	0.000000	0.0
0.000000	-0.000000	0.0
0.000000	-0.000000	0.0
-0.000000	-0.000000	0.0
-0.000000	-0.000000	0.0
-0.000000	-0.000000	0.0
-0.000000	-0.000000	0.0
-0.000000	-0.000001	0.0
-0.000000	-0.000001	0.0
0.000000	-0.000001	0.0
0.000000	-0.000001	0.0
0.000000	-0.000001	0.0
0.000000	-0.000001	0.0
0.000000	-0.000001	0.0
0.000000	-0.000001	0.0
0.000001	-0.000001	0.0
0.000001	-0.000001	0.0
0.000001	-0.000001	0.0
0.000001	-0.000001	0.0
0.000001	-0.000001	0.0
0.000002	-0.000001	0.0
0.000002	-0.000001	0.0
0.000003	-0.000001	0.0
0.000003	-0.000001	0.0
0.000004	-0.000001	0.0
0.000005	-0.000001	0.0
0.000006	-0.000001	0.0
0.000007	-0.000001	0.0
0.000009	-0.000001	0.0
0.000010	-0.000001	0.0
0.000012	-0.000001	0.0
0.000014	-0.000001	0.0
0.000017	-0.000001	0.0
0.000020	-0.000001	0.0
0.000024	-0.000001	0.0
0.000028	-0.000001	0.0
0.000033	-0.000001	0.0
0.000038	-0.000001	0.0
0.000044	-0.000001	0.0
0.000052	-0.000001	0.0
0.000060	-0.000001	0.0
0.000069	-0.000001	0.0
0.000080	-0.000001	0.0
0.000092	-0.000001	0.0
0.000106	-0.000001	0.0
0.000121	-0.000001	0.0
0.000139	-0.000001	0.0
0.000159	-0.000001	0.0
0.000181	-0.000001	0.0
0.000206	-0.000001	0.0
0.000234	-0.000001	0.0
0.000265	-0.000001	0.0
0.000300	-0.000001	0.0
0.000339	-0.000001	0.0
0.000383	-0.000001	0.0
0.000431	-0.000001	0.0
0.000485	-0.000001	0.0
0.000545	-0.000001	0.0
0.000611	-0.000001	0.0
0.000684	-0.000001	0.0
0.000766	-0.000001	0.0
0.000856	-0.000001	0.0
0.000955	-0.000001	0.0
0.001066	-0.000001	0.0
0.001188	-0.000001	0.0
0.001323	-0.000001	0.0
0.001474	-0.000001	0.0
0.001640	-0.000001	0.0
0.001826	-0.000001	0.0
0.002032	-0.000001	0.0
0.002263	-0.000001	0.0
0.002521	-0.000001	0.0
0.002810	-0.000001	0.0
0.003136	-0.000000	0.0
0.003504	-0.000000	0.0
0.003922	-0.000000	0.0
0.004400	-0.000000	0.0
0.004948	0.000000	0.0
0.005582	0.000001	0.0
0.006319	0.000001	0.0
0.007184	0.000001	0.0
0.008210	0.000002	0.0
0.009437	0.000002	0.0
0.010923	0.000003	0.0
0.012747	0.000004	0.0
0.015020	0.000005	0.0
0.017902	0.000006	0.0
0.021628	0.000008	0.0
0.026559	0.000009	0.0
0.033262	0.000011	0.0
0.042668	0.000013	0.0
0.056392	0.000015	0.0
0.077459	0.000015	0.0
0.112295	0.000013	0.0
0.178486	0.000007	0.0
0.000001	0.000001	0.0
0.000001	0.000001	0.0
0.000001	0.000000	0.0
0.000000	0.000000	0.0
0.000000	-0.000000	0.0
0.000000	-0.000000	0.0
0.000000	-0.000000	0.0
0.000000	-0.000000	0.0
0.000000	-0.000000	0.0
0.000000	-0.000000	0.0
0.000000	-0.000000	0.0
0.000000	-0.000000	0.0
0.000000	-0.000000	0.0
0.000000	-0.000000	0.0
0.000000	-0.000000	0.0
0.000000	-0.000000	0.0
0.000001	-0.000000	0.0
0.000001	-0.000000	0.0
0.000001	-0.000000	0.0
0.000001	-0.000000	0.0
0.000001	-0.000000	0.0
0.000002	-0.000000	0.0
0.000002	-0.000000	0.0
0.000002	-0.000000	0.0
0.000003	-0.000000	0.0
0.000004	-0.000000	0.0
0.000004	-0.000000	0.0
0.000005	-0.000000	0.0
0.000007	-0.000000	0.0
0.000008	-0.000000	0.0
0.000009	-0.000000	0.0
0.000011	-0.000000	0.0
0.000013	-0.000000	0.0
0.000016	-0.000000	0.0
0.000019	-0.000000	0.0
0.000022	-0.000000	0.0
0.000026	-0.000000	0.0
0.000031	-0.000000	0.0
0.000036	-0.000000	0.0
0.000042	-0.000000	0.0
0.000049	-0.000000	0.0
0.000057	-0.000000	0.0
0.000066	-0.000000	0.0
0.000077	-0.000000	0.0
0.000089	-0.000000	0.0
0.000102	-0.000000	0.0
0.000118	-0.000000	0.0
0.000135	-0.000000	0.0
0.000155	-0.000000	0.0
0.000178	-0.000000	0.0
0.000203	-0.000000	0.0
0.000231	-0.000000	0.0
0.000263	-0.000001	0.0
0.000299	-0.000001	0.0
0.000339	-0.000001	0.0
0.000384	-0.000001	0.0
0.000434	-0.000001	0.0
0.000489	-0.000001	0.0
0.000551	-0.000001	0.0
0.000619	-0.000001	0.0
0.000695	-0.000001	0.0
0.000780	-0.000001	0.0
0.000873	-0.000001	0.0
0.000977	-0.000001	0.0
0.001091	-0.000001	0.0
0.001218	-0.000001	0.0
0.001358	-0.000001	0.0
0.001514	-0.000001	0.0
0.001685	-0.000001	0.0
0.001876	-0.000001	0.0
0.002087	-0.000001	0.0
0.002322	-0.000001	0.0
0.002583	-0.000001	0.0
0.002874	-0.000000	0.0
0.003199	-0.000000	0.0
0.003563	-0.000000	0.0
0.003973	-0.000000	0.0
0.004435	-0.000000	0.0
0.004959	0.000000	0.0
0.005555	0.000000	0.0
0.006238	0.000001	0.0
0.007025	0.000001	0.0
0.007937	0.000001	0.0
0.009003	0.000002	0.0
0.010260	0.000003	0.0
0.011755	0.000003	0.0
0.013554	0.000004	0.0
0.015744	0.000005	0.0
0.018446	0.000007	0.0
0.021831	0.000008	0.0
0.026148	0.000010	0.0
0.031761	0.000012	0.0
0.039235	0.000014	0.0
0.049467	0.000016	0.0
0.063977	0.000018	0.0
0.085568	0.000018	0.0
0.120213	0.000016	0.0
0.184589	0.000010	0.0
0.000000	0.000000	0.0
0.000000	0.000000	0.0
0.000000	0.000000	0.0
0.000000	0.000000	0.0
0.000000	-0.000000	0.0
0.000000	-0.000000	0.0
0.000000	-0.000000	0.0
0.000000	-0.000000	0.0
0.000000	-0.000000	0.0
0.000000	-0.000000	0.0
0.000000	-0.000000	0.0
0.000000	-0.000000	0.0
0.000000	-0.000000	0.0
0.000000	-0.000000	0.0
0.000000	-0.000000	0.0
0.000001	-0.000000	0.0
0.000001	-0.000000	0.0
0.000001	-0.000000	0.0
0.000001	-0.000000	0.0
0.000001	-0.000000	0.0
0.000002	-0.000000	0.0
0.000002	-0.000000	0.0
0.000003	-0.000000	0.0
0.000003	-0.000000	0.0
0.000004	-0.000000	0.0
0.000005	-0.000000	0.0
0.000006	-0.000000	0.0
0.000007	-0.000000	0.0
0.000008	-0.000000	0.0
0.000010	-0.000000	0.0
0.000011	-0.000000	0.0
0.000014	-0.000000	0.0
0.000016	-0.000000	0.0
0.000019	-0.000000	0.0
0.000023	-0.000000	0.0
0.000027	-0.000000	0.0
0.000032	-0.000000	0.0
0.000037	-0.000000	0.0
0.000044	-0.000000	0.0
0.000051	-0.000000	0.0
0.000059	-0.000000	0.0
0.000069	-0.000000	0.0
0.000080	-0.000000	0.0
0.000093	-0.000000	0.0
0.000108	-0.000000	0.0
0.000124	-0.000000	0.0
0.000143	-0.000000	0.0
0.000164	-0.000000	0.0
0.000188	-0.000000	0.0
0.000216	-0.000000	0.0
0.000246	-0.000000	0.0
0.000281	-0.000000	0.0
0.000320	-0.000000	0.0
0.000363	-0.000000	0.0
0.000411	-0.000000	0.0
0.000466	-0.000000	0.0
0.000526	-0.000000	0.0
0.000593	-0.000000	0.0
0.000668	-0.000000	0.0
0.000751	-0.000001	0.0
0.000843	-0.000001	0.0
0.000945	-0.000001	0.0
0.001058	-0.000001	0.0
0.001182	-0.000001	0.0
0.001321	-0.000001	0.0
0.001473	-0.000001	0.0
0.001642	-0.000001	0.0
0.001829	-0.000001	0.0
0.002036	-0.000001	0.0
0.002265	-0.000001	0.0
0.002519	-0.000001	0.0
0.002800	-0.000000	0.0
0.003113	-0.000000	0.0
0.003461	-0.000000	0.0
0.003849	-0.000000	0.0
0.004284	-0.000000	0.0
0.004771	-0.000000	0.0
0.005320	0.000000	0.0
0.005940	0.000000	0.0
0.006645	0.000001	0.0
0.007449	0.000001	0.0
0.008372	0.000001	0.0
0.009439	0.000002	0.0
0.010679	0.000003	0.0
0.012133	0.000003	0.0
0.013854	0.000004	0.0
0.015908	0.000005	0.0
0.018389	0.000007	0.0
0.021420	0.000008	0.0
0.025177	0.000010	0.0
0.029904	0.000012	0.0
0.035962	0.000014	0.0
0.043890	0.000016	0.0
0.054543	0.000018	0.0
0.069354	0.000020	0.0
0.090980	0.000021	0.0
0.125149	0.000018	0.0
0.188136	0.000012	0.0
0.000000	0.000000	0.0
0.000000	0.000000	0.0
0.000000	0.000000	0.0
0.000000	0.000000	0.0
0.000000	-0.000000	0.0
0.000000	-0.000000	0.0
0.000000	-0.000000	0.0
0.000000	-0.000000	0.0
0.000000	-0.000000	0.0
0.000000	-0.000000	0.0
0.000000	-0.000000	0.0
0.000000	-0.000000	0.0
0.000000	-0.000000	0.0
0.000000	-0.000000	0.0
0.000001	-0.000000	0.0
0.000001	-0.000000	0.0
0.000001	-0.000000	0.0
0.000001	-0.000000	0.0
0.000001	-0.000000	0.0
0.000002	-0.000000	0.0
0.000002	-0.000000	0.0
0.000002	-0.000000	0.0
0.000003	-0.000000	0.0
0.000004	-0.000000	0.0
0.000004	-0.000000	0.0
0.000005	-0.000000	0.0
0.000007	-0.000000	0.0
0.000008	-0.000000	0.0
0.000009	-0.000000	0.0
0.000011	-0.000000	0.0
0.000013	-0.000000	0.0
0.000016	-0.000000	0.0
0.000019	-0.000000	0.0
0.000023	-0.000000	0.0
0.000027	-0.000000	0.0
0.000032	-0.000000	0.0
0.000037	-0.000000	0.0
0.000044	-0.000000	0.0
0.000051	-0.000000	0.0
0.000060	-0.000000	0.0
0.000070	-0.000000	0.0
0.000081	-0.000000	0.0
0.000094	-0.000000	0.0
0.000109	-0.000000	0.0
0.000126	-0.000000	0.0
0.000146	-0.000000	0.0
0.000168	-0.000000	0.0
0.000193	-0.000000	0.0
0.000221	-0.000000	0.0
0.000253	-0.000000	0.0
0.000289	-0.000000	0.0
0.000329	-0.000000	0.0
0.000375	-0.000000	0.0
0.000425	-0.000000	0.0
0.000482	-0.000000	0.0
0.000545	-0.000000	0.0
0.000616	-0.000000	0.0
0.000694	-0.000000	0.0
0.000782	-0.000000	0.0
0.000878	-0.000000	0.0
0.000986	-0.000000	0.0
0.001105	-0.000001	0.0
0.001236	-0.000001	0.0
0.001382	-0.000001	0.0
0.001543	-0.000001	0.0
0.001720	-0.000001	0.0
0.001917	-0.000001	0.0
0.002134	-0.000001	0.0
0.002374	-0.000001	0.0
0.002639	-0.000001	0.0
0.002932	-0.000000	0.0
0.003258	-0.000000	0.0
0.003619	-0.000000	0.0
0.004020	-0.000000	0.0
0.004467	-0.000000	0.0
0.004966	-0.000000	0.0
0.005525	0.000000	0.0
0.006153	0.000000	0.0
0.006861	0.000000	0.0
0.007663	0.000001	0.0
0.008574	0.000001	0.0
0.009617	0.000002	0.0
0.010817	0.000002	0.0
0.012205	0.000003	0.0
0.013825	0.000004	0.0
0.015729	0.000005	0.0
0.017988	0.000006	0.0
0.020693	0.000008	0.0
0.023971	0.000009	0.0
0.027991	0.000011	0.0
0.032994	0.000013	0.0
0.039326	0.000015	0.0
0.047505	0.000018	0.0
0.058345	0.000020	0.0
0.073221	0.000022	0.0
0.094699	0.000023	0.0
0.128385	0.000020	0.0
0.190362	0.000013	0.0
0.000000	0.000000	0.0
0.000000	0.000000	0.0
0.000000	0.000000	0.0
0.000000	0.000000	0.0
0.000000	0.000000	0.0
0.000000	-0.000000	0.0
0.000000	-0.000000	0.0
0.000000	-0.000000	0.0
0.000000	-0.000000	0.0
0.000000	-0.000000	0.0
0.000000	-0.000000	0.0
0.000000	-0.000000	0.0
0.000000	-0.000000	0.0
0.000001	-0.000000	0.0
0.000001	-0.000000	0.0
0.000001	-0.000000	0.0
0.000001	-0.000000	0.0
0.000001	-0.000000	0.0
0.000002	-0.000000	0.0
0.000002	-0.000000	0.0
0.000002	-0.000000	0.0
0.000003	-0.000000	0.0
0.000004	-0.000000	0.0
0.000004	-0.000000	0.0
0.000005	-0.000000	0.0
0.000006	-0.000000	0.0
0.000008	-0.000000	0.0
0.000009	-0.000000	0.0
0.000011	-0.000000	0.0
0.000013	-0.000000	0.0
0.000015	-0.000000	0.0
0.000018	-0.000000	0.0
0.000022	-0.000000	0.0
0.000026	-0.000000	0.0
0.000031	-0.000000	0.0
0.000036	-0.000000	0.0
0.000043	-0.000000	0.0
0.000050	-0.000000	0.0
0.000059	-0.000000	0.0
0.000068	-0.000000	0.0
0.000080	-0.000000	0.0
0.000093	-0.000000	0.0
0.000108	-0.000000	0.0
0.000125	-0.000000	0.0
0.000145	-0.000000	0.0
0.000167	-0.000000	0.0
0.000192	-0.000000	0.0
0.000221	-0.000000	0.0
0.000253	-0.000000	0.0
0.000289	-0.000000	0.0
0.000330	-0.000000	0.0
0.000376	-0.000000	0.0
0.000428	-0.000000	0.0
0.000486	-0.000000	0.0
0.000551	-0.000000	0.0
0.000623	-0.000000	0.0
0.000703	-0.000000	0.0
0.000792	-0.000000	0.0
0.000892	-0.000000	0.0
0.001002	-0.000000	0.0
0.001124	-0.000000	0.0
0.001259	-0.000001	0.0
0.001409	-0.000001	0.0
0.001574	-0.000001	0.0
0.001756	-0.000001	0.0
0.001958	-0.000001	0.0
0.002180	-0.000001	0.0
0.002426	-0.000001	0.0
0.002697	-0.000001	0.0
0.002996	-0.000001	0.0
0.003327	-0.000000	0.0
0.003694	-0.000000	0.0
0.004100	-0.000000	0.0
0.004550	-0.000000	0.0
0.005051	-0.000000	0.0
0.005609	-0.000000	0.0
0.006233	0.000000	0.0
0.006932	0.000000	0.0
0.007718	0.000001	0.0
0.008605	0.000001	0.0
0.009611	0.000001	0.0
0.010757	0.000002	0.0
0.012070	0.000003	0.0
0.013583	0.000003	0.0
0.015338	0.000004	0.0
0.017390	0.000005	0.0
0.019807	0.000007	0.0
0.022683	0.000008	0.0
0.026139	0.000010	0.0
0.030341	0.000012	0.0
0.035522	0.000014	0.0
0.042015	0.000016	0.0
0.050319	0.000019	0.0
0.061219	0.000021	0.0
0.076050	0.000023	0.0
0.097329	0.000024	0.0
0.130599	0.000022	0.0
0.191844	0.000014	0.0
0.000000	0.000000	0.0
0.000000	0.000000	0.0
0.000000	0.000000	0.0
0.000000	0.000000	0.0
0.000000	0.000000	0.0
0.000000	0.000000	0.0
0.000000	-0.000000	0.0
0.000000	-0.000000	0.0
0.000000	-0.000000	0.0
0.000000	-0.000000	0.0
0.000000	-0.000000	0.0
0.000000	-0.000000	0.0
0.000000	-0.000000	0.0
0.000001	-0.000000	0.0
0.000001	-0.000000	0.0
0.000001	-0.000000	0.0
0.000001	-0.000000	0.0
0.000001	-0.000000	0.0
0.000002	-0.000000	0.0
0.000002	-0.000000	0.0
0.000003	-0.000000	0.0
0.000003	-0.000000	0.0
0.000004	-0.000000	0.0
0.000005	-0.000000	0.0
0.000006	-0.000000	0.0
0.000007	-0.000000	0.0
0.000008	-0.000000	0.0
0.000010	-0.000000	0.0
0.000012	-0.000000	0.0
0.000015	-0.000000	0.0
0.000017	-0.000000	0.0
0.000021	-0.000000	0.0
0.000025	-0.000000	0.0
0.000029	-0.000000	0.0
0.000034	-0.000000	0.0
0.000041	-0.000000	0.0
0.000048	-0.000000	0.0
0.000056	-0.000000	0.0
0.000066	-0.000000	0.0
0.000077	-0.000000	0.0
0.000090	-0.000000	0.0
0.000104	-0.000000	0.0
0.000121	-0.000000	0.0
0.000140	-0.000000	0.0
0.000162	-0.000000	0.0
0.000187	-0.000000	0.0
0.000215	-0.000000	0.0
0.000247	-0.000000	0.0
0.000284	-0.000000	0.0
0.000324	-0.000000	0.0
0.000370	-0.000000	0.0
0.000422	-0.000000	0.0
0.000480	-0.000000	0.0
0.000545	-0.000000	0.0
0.000617	-0.000000	0.0
0.000698	-0.000000	0.0
0.000787	-0.000000	0.0
0.000887	-0.000000	0.0
0.000998	-0.000000	0.0
0.001121	-0.000000	0.0
0.001257	-0.000000	0.0
0.001408	-0.000001	0.0
0.001574	-0.000001	0.0
0.001758	-0.000001	0.0
0.001961	-0.000001	0.0
0.002185	-0.000001	0.0
0.002432	-0.000001	0.0
0.002704	-0.000001	0.0
0.003004	-0.000001	0.0
0.003336	-0.000001	0.0
0.003701	-0.000000	0.0
0.004106	-0.000000	0.0
0.004553	-0.000000	0.0
0.005049	-0.000000	0.0
0.005599	-0.000000	0.0
0.006210	0.000000	0.0
0.006892	0.000000	0.0
0.007654	0.000000	0.0
0.008509	0.000001	0.0
0.009471	0.000001	0.0
0.010558	0.000002	0.0
0.011793	0.000002	0.0
0.013201	0.000003	0.0
0.014816	0.000004	0.0
0.016681	0.000005	0.0
0.018849	0.000006	0.0
0.021389	0.000007	0.0
0.024390	0.000009	0.0
0.027972	0.000011	0.0
0.032297	0.000013	0.0
0.037588	0.000015	0.0
0.044168	0.000017	0.0
0.052522	0.000020	0.0
0.063414	0.000022	0.0
0.078157	0.000024	0.0
0.099239	0.000025	0.0
0.132170	0.000022	0.0
0.192876	0.000015	0.0
0.000000	0.000000	0.0
0.000000	0.000000	0.0
0.000000	0.000000	0.0
0.000000	0.000000	0.0
0.000000	0.000000	0.0
0.000000	0.000000	0.0
0.000000	-0.000000	0.0
0.000000	-0.000000	0.0
0.000000	-0.000000	0.0
0.000000	-0.000000	0.0
0.000000	-0.000000	0.0
0.000000	-0.000000	0.0
0.000001	-0.000000	0.0
0.000001	-0.000000	0.0
0.000001	-0.000000	0.0
0.000001	-0.000000	0.0
0.000001	-0.000000	0.0
0.000002	-0.000000	0.0
0.000002	-0.000000	0.0
0.000002	-0.000000	0.0
0.000003	-0.000000	0.0
0.000004	-0.000000	0.0
0.000004	-0.000000	0.0
0.000005	-0.000000	0.0
0.000006	-0.000000	0.0
0.000008	-0.000000	0.0
0.000009	-0.000000	0.0
0.000011	-0.000000	0.0
0.000014	-0.000000	0.0
0.000016	-0.000000	0.0
0.000019	-0.000000	0.0
0.000023	-0.000000	0.0
0.000027	-0.000000	0.0
0.000032	-0.000000	0.0
0.000038	-0.000000	0.0
0.000045	-0.000000	0.0
0.000053	-0.000000	0.0
0.000062	-0.000000	0.0
0.000073	-0.000000	0.0
0.000085	-0.000000	0.0
0.000099	-0.000000	0.0
0.000116	-0.000000	0.0
0.000134	-0.000000	0.0
0.000155	-0.000000	0.0
0.000179	-0.000000	0.0
0.000207	-0.000000	0.0
0.000238	-0.000000	0.0
0.000274	-0.000000	0.0
0.000313	-0.000000	0.0
0.000358	-0.000000	0.0
0.000409	-0.000000	0.0
0.000466	-0.000000	0.0
0.000530	-0.000000	0.0
0.000601	-0.000000	0.0
0.000681	-0.000000	0.0
0.000770	-0.000000	0.0
0.000868	-0.000000	0.0
0.000978	-0.000000	0.0
0.001100	-0.000000	0.0
0.001235	-0.000000	0.0
0.001385	-0.000001	0.0
0.001550	-0.000001	0.0
0.001732	-0.000001	0.0
0.001934	-0.000001	0.0
0.002156	-0.000001	0.0
0.002401	-0.000001	0.0
0.002671	-0.000001	0.0
0.002968	-0.000001	0.0
0.003295	-0.000001	0.0
0.003656	-0.000001	0.0
0.004054	-0.000000	0.0
0.004494	-0.000000	0.0
0.004979	-0.000000	0.0
0.005515	-0.000000	0.0
0.006110	-0.000000	0.0
0.006769	0.000000	0.0
0.007503	0.000000	0.0
0.008321	0.000000	0.0
0.009236	0.000001	0.0
0.010263	0.000001	0.0
0.011419	0.000002	0.0
0.012728	0.000002	0.0
0.014215	0.000003	0.0
0.015913	0.000004	0.0
0.017866	0.000005	0.0
0.020124	0.000006	0.0
0.022756	0.000008	0.0
0.025849	0.000009	0.0
0.029518	0.000011	0.0
0.033922	0.000013	0.0
0.039277	0.000016	0.0
0.045899	0.000018	0.0
0.054259	0.000021	0.0
0.065113	0.000023	0.0
0.079755	0.000025	0.0
0.100659	0.000026	0.0
0.133318	0.000023	0.0
0.193620	0.000016	0.0
0.000000	0.000000	0.0
0.000000	0.000000	0.0
0.000000	0.000000	0.0
0.000000	0.000000	0.0
0.000000	0.000000	0.0
0.000000	0.000000	0.0
0.000000	0.000000	0.0
0.000000	0.000000	0.0
0.000000	-0.000000	0.0
0.000000	-0.000000	0.0
0.000000	-0.000000	0.0
0.000000	-0.000000	0.0
0.000001	-0.000000	0.0
0.000001	-0.000000	0.0
0.000001	-0.000000	0.0
0.000001	0.000000	0.0
0.000001	0.000000	0.0
0.000002	0.000000	0.0
0.000002	0.000000	0.0
0.000003	0.000000	0.0
0.000003	0.000000	0.0
0.000004	0.000000	0.0
0.000005	0.000000	0.0
0.000006	0.000000	0.0
0.000007	0.000000	0.0
0.000009	0.000000	0.0
0.000010	0.000000	0.0
0.000012	0.000000	0.0
0.000015	0.000000	0.0
0.000018	0.000000	0.0
0.000021	0.000000	0.0
0.000025	-0.000000	0.0
0.000030	-0.000000	0.0
0.000035	-0.000000	0.0
0.000042	-0.000000	0.0
0.000049	-0.000000	0.0
0.000058	-0.000000	0.0
0.000068	-0.000000	0.0
0.000080	-0.000000	0.0
0.000093	-0.000000	0.0
0.000109	-0.000000	0.0
0.000126	-0.000000	0.0
0.000147	-0.000000	0.0
0.000170	-0.000000	0.0
0.000196	-0.000000	0.0
0.000226	-0.000000	0.0
0.000260	-0.000000	0.0
0.000299	-0.000000	0.0
0.000342	-0.000000	0.0
0.000391	-0.000000	0.0
0.000446	-0.000000	0.0
0.000508	-0.000000	0.0
0.000578	-0.000000	0.0
0.000655	-0.000000	0.0
0.000742	-0.000000	0.0
0.000839	-0.000000	0.0
0.000946	-0.000000	0.0
0.001065	-0.000000	0.0
0.001198	-0.000000	0.0
0.001344	-0.000000	0.0
0.001506	-0.000001	0.0
0.001685	-0.000001	0.0
0.001883	-0.000001	0.0
0.002101	-0.000001	0.0
0.002341	-0.000001	0.0
0.002606	-0.000001	0.0
0.002897	-0.000001	0.0
0.003217	-0.000001	0.0
0.003570	-0.000001	0.0
0.003958	-0.000001	0.0
0.004386	-0.000000	0.0
0.004857	-0.000000	0.0
0.005376	-0.000000	0.0
0.005949	-0.000000	0.0
0.006583	-0.000000	0.0
0.007286	0.000000	0.0
0.008065	0.000000	0.0
0.008932	0.000001	0.0
0.009900	0.000001	0.0
0.010982	0.000001	0.0
0.012197	0.000002	0.0
0.013568	0.000002	0.0
0.015119	0.000003	0.0
0.016885	0.000004	0.0
0.018906	0.000005	0.0
0.021234	0.000007	0.0
0.023935	0.000008	0.0
0.027093	0.000010	0.0
0.030821	0.000012	0.0
0.035274	0.000014	0.0
0.040663	0.000016	0.0
0.047297	0.000019	0.0
0.055641	0.000021	0.0
0.066442	0.000024	0.0
0.080985	0.000026	0.0
0.101736	0.000026	0.0
0.134177	0.000024	0.0
0.194173	0.000016	0.0
0.000000	0.000000	0.0
0.000000	0.000000	0.0
0.000000	0.000000	0.0
0.000000	0.000000	0.0
0.000000	0.000000	0.0
0.000000	0.000000	0.0
0.000000	0.000000	0.0
0.000000	0.000000	0.0
0.000000	0.000000	0.0
0.000000	0.000000	0.0
0.000000	0.000000	0.0
0.000001	0.000000	0.0
0.000001	0.000000	0.0
0.000001	0.000000	0.0
0.000001	0.000000	0.0
0.000001	0.000000	0.0
0.000002	0.000000	0.0
0.000002	0.000000	0.0
0.000002	0.000000	0.0
0.000003	0.000000	0.0
0.000004	0.000000	0.0
0.000004	0.000000	0.0
0.000005	0.000000	0.0
0.000006	0.000000	0.0
0.000008	0.000000	0.0
0.000009	0.000000	0.0
0.000011	0.000000	0.0
0.000013	0.000000	0.0
0.000016	0.000000	0.0
0.000019	0.000000	0.0
0.000023	0.000000	0.0
0.000027	0.000000	0.0
0.000032	0.000000	0.0
0.000038	0.000000	0.0
0.000045	0.000000	0.0
0.000053	-0.000000	0.0
0.000063	-0.000000	0.0
0.000074	-0.000000	0.0
0.000086	-0.000000	0.0
0.000101	-0.000000	0.0
0.000117	-0.000000	0.0
0.000137	-0.000000	0.0
0.000159	-0.000000	0.0
0.000184	-0.000000	0.0
0.000212	-0.000000	0.0
0.000244	-0.000000	0.0
0.000281	-0.000000	0.0
0.000323	-0.000000	0.0
0.000370	-0.000000	0.0
0.000423	-0.000000	0.0
0.000482	-0.000000	0.0
0.000549	-0.000000	0.0
0.000624	-0.000000	0.0
0.000708	-0.000000	0.0
0.000801	-0.000000	0.0
0.000905	-0.000000	0.0
0.001020	-0.000000	0.0
0.001149	-0.000000	0.0
0.001291	-0.000000	0.0
0.001448	-0.000001	0.0
0.001622	-0.000001	0.0
0.001814	-0.000001	0.0
0.002026	-0.000001	0.0
0.002259	-0.000001	0.0
0.002516	-0.000001	0.0
0.002799	-0.000001	0.0
0.003110	-0.000001	0.0
0.003452	-0.000001	0.0
0.003827	-0.000001	0.0
0.004241	-0.000001	0.0
0.004695	-0.000001	0.0
0.005195	-0.000000	0.0
0.005745	-0.000000	0.0
0.006352	-0.000000	0.0
0.007021	-0.000000	0.0
0.007761	0.000000	0.0
0.008581	0.000000	0.0
0.009490	0.000001	0.0
0.010502	0.000001	0.0
0.011632	0.000001	0.0
0.012897	0.000002	0.0
0.014318	0.000002	0.0
0.015923	0.000003	0.0
0.017743	0.000004	0.0
0.019818	0.000005	0.0
0.022198	0.000007	0.0
0.024948	0.000008	0.0
0.028152	0.000010	0.0
0.031919	0.000012	0.0
0.036400	0.000014	0.0
0.041803	0.000017	0.0
0.048433	0.000019	0.0
0.056749	0.000022	0.0
0.067493	0.000024	0.0
0.081947	0.000026	0.0
0.102568	0.000027	0.0
0.134834	0.000024	0.0
0.194592	0.000016	0.0
0.000000	0.000000	0.0
0.000000	0.000000	0.0
0.000000	0.000000	0.0
0.000000	0.000000	0.0
0.000000	0.000000	0.0
0.000000	0.000000	0.0
0.000000	0.000000	0.0
0.000000	0.000000	0.0
0.000000	0.000000	0.0
0.000000	0.000000	0.0
0.000000	0.000000	0.0
0.000001	0.000000	0.0
0.000001	0.000000	0.0
0.000001	0.000000	0.0
0.000001	0.000000	0.0
0.000001	0.000000	0.0
0.000002	0.000000	0.0
0.000002	0.000000	0.0
0.000003	0.000000	0.0
0.000003	0.000000	0.0
0.000004	0.000000	0.0
0.000005	0.000000	0.0
0.000006	0.000000	0.0
0.000007	0.000000	0.0
0.000008	0.000000	0.0
0.000010	0.000000	0.0
0.000012	0.000000	0.0
0.000014	0.000000	0.0
0.000017	0.000000	0.0
0.000021	0.000000	0.0
0.000025	0.000000	0.0
0.000029	0.000000	0.0
0.000035	0.000000	0.0
0.000041	0.000000	0.0
0.000049	0.000000	0.0
0.000057	0.000000	0.0
0.000067	-0.000000	0.0
0.000079	-0.000000	0.0
0.000093	-0.000000	0.0
0.000108	-0.000000	0.0
0.000126	-0.000000	0.0
0.000147	-0.000000	0.0
0.000170	-0.000000	0.0
0.000197	-0.000000	0.0
0.000227	-0.000000	0.0
0.000262	-0.000000	0.0
0.000301	-0.000000	0.0
0.000346	-0.000000	0.0
0.000396	-0.000000	0.0
0.000453	-0.000000	0.0
0.000517	-0.000000	0.0
0.000588	-0.000000	0.0
0.000668	-0.000000	0.0
0.000757	-0.000000	0.0
0.000857	-0.000000	0.0
0.000968	-0.000000	0.0
0.001091	-0.000000	0.0
0.001228	-0.000000	0.0
0.001379	-0.000001	0.0
0.001547	-0.000001	0.0
0.001732	-0.000001	0.0
0.001936	-0.000001	0.0
0.002161	-0.000001	0.0
0.002409	-0.000001	0.0
0.002681	-0.000001	0.0
0.002981	-0.000001	0.0
0.003310	-0.000001	0.0
0.003671	-0.000001	0.0
0.004068	-0.000001	0.0
0.004504	-0.000001	0.0
0.004982	-0.000001	0.0
0.005508	-0.000000	0.0
0.006086	-0.000000	0.0
0.006722	-0.000000	0.0
0.007423	-0.000000	0.0
0.008196	0.000000	0.0
0.009051	0.000000	0.0
0.009997	0.000001	0.0
0.011048	0.000001	0.0
0.012218	0.000001	0.0
0.013524	0.000002	0.0
0.014987	0.000003	0.0
0.016635	0.000003	0.0
0.018497	0.000004	0.0
0.020613	0.000006	0.0
0.023033	0.000007	0.0
0.025820	0.000008	0.0
0.029054	0.000010	0.0
0.032845	0.000012	0.0
0.037340	0.000015	0.0
0.042745	0.000017	0.0
0.049361	0.000020	0.0
0.057645	0.000022	0.0
0.068334	0.000025	0.0
0.082707	0.000027	0.0
0.103220	0.000027	0.0
0.135346	0.000024	0.0
0.194917	0.000017	0.0
0.000000	0.000000	0.0
0.000000	0.000000	0.0
0.000000	0.000000	0.0
0.000000	0.000000	0.0
0.000000	0.000000	0.0
0.000000	0.000000	0.0
0.000000	0.000000	0.0
0.000000	0.000000	0.0
0.000000	0.000000	0.0
0.000000	0.000000	0.0
0.000000	0.000000	0.0
0.000001	0.000000	0.0
0.000001	0.000000	0.0
0.000001	0.000000	0.0
0.000001	0.000000	0.0
0.000001	0.000000	0.0
0.000002	0.000000	0.0
0.000002	0.000000	0.0
0.000003	0.000000	0.0
0.000003	0.000000	0.0
0.000004	0.000000	0.0
0.000005	0.000000	0.0
0.000006	0.000000	0.0
0.000007	0.000000	0.0
0.000009	0.000000	0.0
0.000011	0.000000	0.0
0.000013	0.000000	0.0
0.000015	0.000000	0.0
0.000018	0.000000	0.0
0.000022	0.000000	0.0
0.000026	0.000000	0.0
0.000031	0.000000	0.0
0.000037	0.000000	0.0
0.000044	0.000000	0.0
0.000052	0.000000	0.0
0.000061	0.000000	0.0
0.000072	0.000000	0.0
0.000084	-0.000000	0.0
0.000099	-0.000000	0.0
0.000115	-0.000000	0.0
0.000134	-0.000000	0.0
0.000156	-0.000000	0.0
0.000181	-0.000000	0.0
0.000210	-0.000000	0.0
0.000242	-0.000000	0.0
0.000279	-0.000000	0.0
0.000321	-0.000000	0.0
0.000368	-0.000000	0.0
0.000421	-0.000000	0.0
0.000482	-0.000000	0.0
0.000549	-0.000000	0.0
0.000625	-0.000000	0.0
0.000710	-0.000000	0.0
0.000804	-0.000000	0.0
0.000910	-0.000000	0.0
0.001027	-0.000000	0.0
0.001158	-0.000000	0.0
0.001302	-0.000001	0.0
0.001462	-0.000001	0.0
0.001639	-0.000001	0.0