# vtk DataFile Version 3.0
Header
ASCII
DATASET RECTILINEAR_GRID
DIMENSIONS 98 98 1
X_COORDINATES 98 double
0.030000 0.050000 0.070000 0.090000 0.110000 0.130000 0.150000 0.170000 0.190000 0.210000 0.230000 0.250000 0.270000 0.290000 0.310000 0.330000 0.350000 0.370000 0.390000 0.410000 0.430000 0.450000 0.470000 0.490000 0.510000 0.530000 0.550000 0.570000 0.590000 0.610000 0.630000 0.650000 0.670000 0.690000 0.710000 0.730000 0.750000 0.770000 0.790000 0.810000 0.830000 0.850000 0.870000 0.890000 0.910000 0.930000 0.950000 0.970000 0.990000 1.010000 1.030000 1.050000 1.070000 1.090000 1.110000 1.130000 1.150000 1.170000 1.190000 1.210000 1.230000 1.250000 1.270000 1.290000 1.310000 1.330000 1.350000 1.370000 1.390000 1.410000 1.430000 1.450000 1.470000 1.490000 1.510000 1.530000 1.550000 1.570000 1.590000 1.610000 1.630000 1.650000 1.670000 1.690000 1.710000 1.730000 1.750000 1.770000 1.790000 1.810000 1.830000 1.850000 1.870000 1.890000 1.910000 1.930000 1.950000 1.970000 
Y_COORDINATES 98 double
0.030000 0.050000 0.070000 0.090000 0.110000 0.130000 0.150000 0.170000 0.190000 0.210000 0.230000 0.250000 0.270000 0.290000 0.310000 0.330000 0.350000 0.370000 0.390000 0.410000 0.430000 0.450000 0.470000 0.490000 0.510000 0.530000 0.550000 0.570000 0.590000 0.610000 0.630000 0.650000 0.670000 0.690000 0.710000 0.730000 0.750000 0.770000 0.790000 0.810000 0.830000 0.850000 0.870000 0.890000 0.910000 0.930000 0.950000 0.970000 0.990000 1.010000 1.030000 1.050000 1.070000 1.090000 1.110000 1.130000 1.150000 1.170000 1.190000 1.210000 1.230000 1.250000 1.270000 1.290000 1.310000 1.330000 1.350000 1.370000 1.390000 1.410000 1.430000 1.450000 1.470000 1.490000 1.510000 1.530000 1.550000 1.570000 1.590000 1.610000 1.630000 1.650000 1.670000 1.690000 1.710000 1.730000 1.750000 1.770000 1.790000 1.810000 1.830000 1.850000 1.870000 1.890000 1.910000 1.930000 1.950000 1.970000 
Z_COORDINATES 1 double
0.0
POINT_DATA 9604
VECTORS velocity double
0.000003	0.000002	0.0
0.000002	0.000002	0.0
0.000002	0.000001	0.0
0.000001	0.000000	0.0
0.000000	-0.000000	0.0
-0.000000	-0.000001	0.0
-0.000000	-0.000001	0.0
-0.000000	-0.000001	0.0
-0.000000	-0.000001	0.0
-0.000000	-0.000001	0.0
-0.000000	-0.000001	0.0
-0.000000	-0.000001	0.0
-0.000000	-0.000001	0.0
-0.000000	-0.000001	0.0
-0.000000	-0.000001	0.0
-0.000000	-0.000001	0.0
-0.000000	-0.000001	0.0
-0.000000	-0.000001	0.0
-0.000000	-0.000001	0.0
-0.000000	-0.000001	0.0
-0.000000	-0.000001	0.0
-0.000000	-0.000001	0.0
-0.000000	-0.000001	0.0
-0.000000	-0.000001	0.0
-0.000000	-0.000001	0.0
-0.000000	-0.000001	0.0
-0.000000	-0.000001	0.0
-0.000000	-0.000001	0.0
-0.000000	-0.000001	0.0
-0.000000	-0.000001	0.0
-0.000000	-0.000001	0.0
-0.000000	-0.000001	0.0
-0.000000	-0.000001	0.0
-0.000000	-0.000001	0.0
-0.000000	-0.000001	0.0
-0.000000	-0.000001	0.0
-0.000000	-0.000001	0.0
-0.000000	-0.000001	0.0
-0.000000	-0.000001	0.0
-0.000000	-0.000001	0.0
-0.000000	-0.000001	0.0
-0.000000	-0.000001	0.0
-0.000000	-0.000001	0.0
-0.000000	-0.000001	0.0
-0.000000	-0.000001	0.0
-0.000000	-0.000001	0.0
-0.000000	-0.000001	0.0
-0.000000	-0.000001	0.0
-0.000000	-0.000001	0.0
-0.000000	-0.000001	0.0
-0.000000	-0.000001	0.0
-0.000000	-0.000001	0.0
-0.000000	-0.000001	0.0
-0.000000	-0.000001	0.0
-0.000000	-0.000001	0.0
-0.000000	-0.000001	0.0
-0.000000	-0.000001	0.0
-0.000000	-0.000001	0.0
-0.000000	-0.000001	0.0
-0.000000	-0.000001	0.0
-0.000000	-0.000001	0.0
-0.000000	-0.000001	0.0
-0.000000	-0.000001	0.0
-0.000000	-0.000001	0.0
-0.000000	-0.000001	0.0
-0.000000	-0.000001	0.0
-0.000000	-0.000001	0.0
-0.000000	-0.000001	0.0
-0.000000	-0.000001	0.0
-0.000000	-0.000001	0.0
-0.000000	-0.000001	0.0
-0.000000	-0.000001	0.0
-0.000000	-0.000001	0.0
0.000000	-0.000001	0.0
0.000001	-0.000001	0.0
0.000002	-0.000001	0.0
0.000004	-0.000001	0.0
0.000007	-0.000001	0.0
0.000015	-0.000001	0.0
0.000028	-0.000001	0.0
0.000051	-0.000001	0.0
0.000091	-0.000001	0.0
0.000158	-0.000001	0.0
0.000268	-0.000001	0.0
0.000443	-0.000001	0.0
0.000715	-0.000000	0.0
0.001129	-0.000000	0.0
0.001745	0.000000	0.0
0.002644	0.000001	0.0
0.003941	0.000002	0.0
0.005801	0.000003	0.0
0.008472	0.000004	0.0
0.012364	0.000006	0.0
0.018207	0.000009	0.0
0.027428	0.000011	0.0
0.043137	0.000013	0.0
0.073034	0.000013	0.0
0.140495	0.000010	0.0
0.000002	0.000002	0.0
0.000002	0.000002	0.0
0.000002	0.000001	0.0
0.000001	0.000001	0.0
0.000000	-0.000000	0.0
0.000000	-0.000001	0.0
-0.000000	-0.000001	0.0
-0.000000	-0.000001	0.0
-0.000000	-0.000001	0.0
-0.000000	-0.000001	0.0
-0.000000	-0.000001	0.0
-0.000000	-0.000001	0.0
-0.000000	-0.000001	0.0
-0.000000	-0.000001	0.0
-0.000000	-0.000001	0.0
-0.000000	-0.000001	0.0
-0.000000	-0.000001	0.0
-0.000000	-0.000001	0.0
-0.000000	-0.000001	0.0
-0.000000	-0.000001	0.0
-0.000000	-0.000001	0.0
-0.000000	-0.000001	0.0
-0.000000	-0.000001	0.0
-0.000000	-0.000001	0.0
-0.000000	-0.000001	0.0
-0.000000	-0.000001	0.0
-0.000000	-0.000001	0.0
-0.000000	-0.000001	0.0
-0.000000	-0.000001	0.0
-0.000000	-0.000001	0.0
-0.000000	-0.000001	0.0
-0.000000	-0.000001	0.0
-0.000000	-0.000001	0.0
-0.000000	-0.000001	0.0
-0.000000	-0.000001	0.0
-0.000000	-0.000001	0.0
-0.000000	-0.000001	0.0
-0.000000	-0.000001	0.0
-0.000000	-0.000001	0.0
-0.000000	-0.000001	0.0
-0.000000	-0.000001	0.0
-0.000000	-0.000001	0.0
-0.000000	-0.000001	0.0
-0.000000	-0.000001	0.0
-0.000000	-0.000001	0.0
-0.000000	-0.000001	0.0
-0.000000	-0.000001	0.0
-0.000000	-0.000001	0.0
-0.000000	-0.000001	0.0
-0.000000	-0.000001	0.0
-0.000000	-0.000001	0.0
-0.000000	-0.000001	0.0
-0.000000	-0.000001	0.0
-0.000000	-0.000001	0.0
-0.000000	-0.000001	0.0
-0.000000	-0.000001	0.0
-0.000000	-0.000001	0.0
-0.000000	-0.000001	0.0
-0.000000	-0.000001	0.0
-0.000000	-0.000001	0.0
-0.000000	-0.000001	0.0
-0.000000	-0.000001	0.0
-0.000000	-0.000001	0.0
-0.000000	-0.000001	0.0
-0.000000	-0.000001	0.0
-0.000000	-0.000001	0.0
-0.000000	-0.000001	0.0
-0.000000	-0.000001	0.0
-0.000000	-0.000001	0.0
-0.000000	-0.000001	0.0
-0.000000	-0.000001	0.0
-0.000000	-0.000001	0.0
-0.000000	-0.000001	0.0
0.000000	-0.000001	0.0
0.000001	-0.000001	0.0
0.000003	-0.000001	0.0
0.000006	-0.000001	0.0
0.000012	-0.000001	0.0
0.000024	-0.000001	0.0
0.000045	-0.000001	0.0
0.000083	-0.000001	0.0
0.000147	-0.000001	0.0
0.000256	-0.000001	0.0
0.000433	-0.000001	0.0
0.000716	-0.000001	0.0
0.001153	-0.000000	0.0
0.001815	0.000000	0.0
0.002796	0.000001	0.0
0.004221	0.000002	0.0
0.006260	0.000003	0.0
0.009151	0.000005	0.0
0.013245	0.000007	0.0
0.019084	0.000010	0.0
0.027579	0.000014	0.0
0.040373	0.000018	0.0
0.060692	0.000020	0.0
0.095661	0.000020	0.0
0.164914	0.000016	0.0
0.000002	0.000002	0.0
0.000002	0.000002	0.0
0.000002	0.000001	0.0
0.000001	0.000000	0.0
0.000000	-0.000000	0.0
0.000000	-0.000001	0.0
-0.000000	-0.000001	0.0
-0.000000	-0.000001	0.0
-0.000000	-0.000001	0.0
-0.000000	-0.000001	0.0
-0.000000	-0.000001	0.0
-0.000000	-0.000001	0.0
-0.000000	-0.000001	0.0
-0.000000	-0.000001	0.0
-0.000000	-0.000001	0.0
-0.000000	-0.000001	0.0
-0.000000	-0.000001	0.0
-0.000000	-0.000001	0.0
-0.000000	-0.000001	0.0
-0.000000	-0.000001	0.0
-0.000000	-0.000001	0.0
-0.000000	-0.000001	0.0
-0.000000	-0.000001	0.0
-0.000000	-0.000001	0.0
-0.000000	-0.000001	0.0
-0.000000	-0.000001	0.0
-0.000000	-0.000001	0.0
-0.000000	-0.000001	0.0
-0.000000	-0.000001	0.0
-0.000000	-0.000001	0.0
-0.000000	-0.000001	0.0
-0.000000	-0.000001	0.0
-0.000000	-0.000001	0.0
-0.000000	-0.000001	0.0
-0.000000	-0.000001	0.0
-0.000000	-0.000001	0.0
-0.000000	-0.000001	0.0
-0.000000	-0.000001	0.0
-0.000000	-0.000001	0.0
-0.000000	-0.000001	0.0
-0.000000	-0.000001	0.0
-0.000000	-0.000001	0.0
-0.000000	-0.000001	0.0
-0.000000	-0.000001	0.0
-0.000000	-0.000001	0.0
-0.000000	-0.000001	0.0
-0.000000	-0.000001	0.0
-0.000000	-0.000001	0.0
-0.000000	-0.000001	0.0
-0.000000	-0.000001	0.0
-0.000000	-0.000001	0.0
-0.000000	-0.000001	0.0
-0.000000	-0.000001	0.0
-0.000000	-0.000001	0.0
-0.000000	-0.000001	0.0
-0.000000	-0.000001	0.0
-0.000000	-0.000001	0.0
-0.000000	-0.000001	0.0
-0.000000	-0.000001	0.0
-0.000000	-0.000001	0.0
-0.000000	-0.000001	0.0
-0.000000	-0.000001	0.0
-0.000000	-0.000001	0.0
-0.000000	-0.000001	0.0
-0.000000	-0.000001	0.0
-0.000000	-0.000001	0.0
-0.000000	-0.000001	0.0
-0.000000	-0.000001	0.0
-0.000000	-0.000001	0.0
-0.000000	-0.000001	0.0
-0.000000	-0.000001	0.0
-0.000000	-0.000001	0.0
0.000000	-0.000001	0.0
0.000001	-0.000001	0.0
0.000002	-0.000001	0.0
0.000004	-0.000001	0.0
0.000008	-0.000001	0.0
0.000017	-0.000001	0.0
0.000032	-0.000001	0.0
0.000061	-0.000001	0.0
0.000111	-0.000001	0.0
0.000198	-0.000001	0.0
0.000344	-0.000001	0.0
0.000581	-0.000000	0.0
0.000957	-0.000000	0.0
0.001538	0.000000	0.0
0.002414	0.000001	0.0
0.003703	0.000002	0.0
0.005563	0.000003	0.0
0.008201	0.000004	0.0
0.011897	0.000007	0.0
0.017048	0.000010	0.0
0.024241	0.000014	0.0
0.034415	0.000018	0.0
0.049169	0.000023	0.0
0.071502	0.000027	0.0
0.107814	0.000027	0.0
0.175745	0.000022	0.0
0.000001	0.000001	0.0
0.000001	0.000001	0.0
0.000001	0.000001	0.0
0.000001	0.000000	0.0
0.000000	-0.000000	0.0
0.000000	-0.000000	0.0
-0.000000	-0.000000	0.0
-0.000000	-0.000001	0.0
-0.000000	-0.000001	0.0
-0.000000	-0.000001	0.0
-0.000000	-0.000001	0.0
-0.000000	-0.000001	0.0
-0.000000	-0.000001	0.0
-0.000000	-0.000001	0.0
-0.000000	-0.000001	0.0
-0.000000	-0.000001	0.0
-0.000000	-0.000001	0.0
-0.000000	-0.000001	0.0
-0.000000	-0.000001	0.0
-0.000000	-0.000001	0.0
-0.000000	-0.000001	0.0
-0.000000	-0.000001	0.0
-0.000000	-0.000001	0.0
-0.000000	-0.000001	0.0
-0.000000	-0.000001	0.0
-0.000000	-0.000001	0.0
-0.000000	-0.000001	0.0
-0.000000	-0.000001	0.0
-0.000000	-0.000001	0.0
-0.000000	-0.000001	0.0
-0.000000	-0.000001	0.0
-0.000000	-0.000001	0.0
-0.000000	-0.000001	0.0
-0.000000	-0.000001	0.0
-0.000000	-0.000001	0.0
-0.000000	-0.000001	0.0
-0.000000	-0.000001	0.0
-0.000000	-0.000001	0.0
-0.000000	-0.000001	0.0
-0.000000	-0.000001	0.0
-0.000000	-0.000001	0.0
-0.000000	-0.000001	0.0
-0.000000	-0.000001	0.0
-0.000000	-0.000001	0.0
-0.000000	-0.000001	0.0
-0.000000	-0.000001	0.0
-0.000000	-0.000001	0.0
-0.000000	-0.000001	0.0
-0.000000	-0.000001	0.0
-0.000000	-0.000001	0.0
-0.000000	-0.000001	0.0
-0.000000	-0.000001	0.0
-0.000000	-0.000001	0.0
-0.000000	-0.000001	0.0
-0.000000	-0.000001	0.0
-0.000000	-0.000001	0.0
-0.000000	-0.000001	0.0
-0.000000	-0.000001	0.0
-0.000000	-0.000001	0.0
-0.000000	-0.000001	0.0
-0.000000	-0.000001	0.0
-0.000000	-0.000001	0.0
-0.000000	-0.000001	0.0
-0.000000	-0.000001	0.0
-0.000000	-0.000001	0.0
-0.000000	-0.000001	0.0
-0.000000	-0.000001	0.0
-0.000000	-0.000001	0.0
-0.000000	-0.000001	0.0
-0.000000	-0.000001	0.0
-0.000000	-0.000001	0.0
0.000000	-0.000001	0.0
0.000000	-0.000001	0.0
0.000001	-0.000001	0.0
0.000002	-0.000001	0.0
0.000005	-0.000001	0.0
0.000010	-0.000001	0.0
0.000021	-0.000001	0.0
0.000040	-0.000001	0.0
0.000075	-0.000001	0.0
0.000136	-0.000000	0.0
0.000242	-0.000000	0.0
0.000419	-0.000000	0.0
0.000707	-0.000000	0.0
0.001161	0.000000	0.0
0.001861	0.000001	0.0
0.002911	0.000001	0.0
0.004448	0.000002	0.0
0.006649	0.000004	0.0
0.009742	0.000006	0.0
0.014029	0.000009	0.0
0.019916	0.000012	0.0
0.027993	0.000017	0.0
0.039161	0.000022	0.0
0.054926	0.000027	0.0
0.078063	0.000031	0.0
0.114524	0.000032	0.0
0.181080	0.000026	0.0
0.000001	0.000001	0.0
0.000001	0.000001	0.0
0.000001	0.000000	0.0
0.000000	0.000000	0.0
0.000000	-0.000000	0.0
0.000000	-0.000000	0.0
-0.000000	-0.000000	0.0
-0.000000	-0.000000	0.0
-0.000000	-0.000000	0.0
-0.000000	-0.000000	0.0
-0.000000	-0.000000	0.0
-0.000000	-0.000000	0.0
-0.000000	-0.000000	0.0
-0.000000	-0.000000	0.0
-0.000000	-0.000000	0.0
-0.000000	-0.000000	0.0
-0.000000	-0.000000	0.0
-0.000000	-0.000000	0.0
-0.000000	-0.000000	0.0
-0.000000	-0.000000	0.0
-0.000000	-0.000000	0.0
-0.000000	-0.000000	0.0
-0.000000	-0.000000	0.0
-0.000000	-0.000000	0.0
-0.000000	-0.000000	0.0
-0.000000	-0.000000	0.0
-0.000000	-0.000000	0.0
-0.000000	-0.000000	0.0
-0.000000	-0.000000	0.0
-0.000000	-0.000000	0.0
-0.000000	-0.000000	0.0
-0.000000	-0.000000	0.0
-0.000000	-0.000000	0.0
-0.000000	-0.000000	0.0
-0.000000	-0.000000	0.0
-0.000000	-0.000000	0.0
-0.000000	-0.000000	0.0
-0.000000	-0.000000	0.0
-0.000000	-0.000000	0.0
-0.000000	-0.000000	0.0
-0.000000	-0.000000	0.0
-0.000000	-0.000000	0.0
-0.000000	-0.000000	0.0
-0.000000	-0.000000	0.0
-0.000000	-0.000000	0.0
-0.000000	-0.000000	0.0
-0.000000	-0.000000	0.0
-0.000000	-0.000000	0.0
-0.000000	-0.000000	0.0
-0.000000	-0.000000	0.0
-0.000000	-0.000000	0.0
-0.000000	-0.000000	0.0
-0.000000	-0.000000	0.0
-0.000000	-0.000000	0.0
-0.000000	-0.000000	0.0
-0.000000	-0.000000	0.0
-0.000000	-0.000000	0.0
-0.000000	-0.000000	0.0
-0.000000	-0.000000	0.0
-0.000000	-0.000000	0.0
-0.000000	-0.000000	0.0
-0.000000	-0.000000	0.0
-0.000000	-0.000000	0.0
-0.000000	-0.000000	0.0
-0.000000	-0.000000	0.0
-0.000000	-0.000000	0.0
-0.000000	-0.000000	0.0
-0.000000	-0.000000	0.0
-0.000000	-0.000000	0.0
-0.000000	-0.000000	0.0
0.000000	-0.000000	0.0
0.000000	-0.000000	0.0
0.000001	-0.000000	0.0
0.000001	-0.000000	0.0
0.000003	-0.000000	0.0
0.000006	-0.000000	0.0
0.000012	-0.000000	0.0
0.000024	-0.000000	0.0
0.000046	-0.000000	0.0
0.000086	-0.000000	0.0
0.000157	-0.000000	0.0
0.000278	-0.000000	0.0
0.000481	0.000000	0.0
0.000810	0.000000	0.0
0.001327	0.000001	0.0
0.002121	0.000001	0.0
0.003307	0.000002	0.0
0.005034	0.000003	0.0
0.007490	0.000005	0.0
0.010914	0.000007	0.0
0.015613	0.000010	0.0
0.021992	0.000014	0.0
0.030620	0.000019	0.0
0.042356	0.000025	0.0
0.058620	0.000030	0.0
0.082040	0.000035	0.0
0.118337	0.000035	0.0
0.183910	0.000029	0.0
0.000000	0.000000	0.0
0.000000	0.000000	0.0
0.000000	0.000000	0.0
0.000000	0.000000	0.0
0.000000	-0.000000	0.0
0.000000	-0.000000	0.0
-0.000000	-0.000000	0.0
-0.000000	-0.000000	0.0
-0.000000	-0.000000	0.0
-0.000000	-0.000000	0.0
-0.000000	-0.000000	0.0
-0.000000	-0.000000	0.0
-0.000000	-0.000000	0.0
-0.000000	-0.000000	0.0
-0.000000	-0.000000	0.0
-0.000000	-0.000000	0.0
-0.000000	-0.000000	0.0
-0.000000	-0.000000	0.0
-0.000000	-0.000000	0.0
-0.000000	-0.000000	0.0
-0.000000	-0.000000	0.0
-0.000000	-0.000000	0.0
-0.000000	-0.000000	0.0
-0.000000	-0.000000	0.0
-0.000000	-0.000000	0.0
-0.000000	-0.000000	0.0
-0.000000	-0.000000	0.0
-0.000000	-0.000000	0.0
-0.000000	-0.000000	0.0
-0.000000	-0.000000	0.0
-0.000000	-0.000000	0.0
-0.000000	-0.000000	0.0
-0.000000	-0.000000	0.0
-0.000000	-0.000000	0.0
-0.000000	-0.000000	0.0
-0.000000	-0.000000	0.0
-0.000000	-0.000000	0.0
-0.000000	-0.000000	0.0
-0.000000	-0.000000	0.0
-0.000000	-0.000000	0.0
-0.000000	-0.000000	0.0
-0.000000	-0.000000	0.0
-0.000000	-0.000000	0.0
-0.000000	-0.000000	0.0
-0.000000	-0.000000	0.0
-0.000000	-0.000000	0.0
-0.000000	-0.000000	0.0
-0.000000	-0.000000	0.0
-0.000000	-0.000000	0.0
-0.000000	-0.000000	0.0
-0.000000	-0.000000	0.0
-0.000000	-0.000000	0.0
-0.000000	-0.000000	0.0
-0.000000	-0.000000	0.0
-0.000000	-0.000000	0.0
-0.000000	-0.000000	0.0
-0.000000	-0.000000	0.0
-0.000000	-0.000000	0.0
-0.000000	-0.000000	0.0
-0.000000	-0.000000	0.0
-0.000000	-0.000000	0.0
-0.000000	-0.000000	0.0
-0.000000	-0.000000	0.0
-0.000000	-0.000000	0.0
-0.000000	-0.000000	0.0
-0.000000	-0.000000	0.0
-0.000000	-0.000000	0.0
-0.000000	-0.000000	0.0
-0.000000	-0.000000	0.0
0.000000	-0.000000	0.0
0.000000	-0.000000	0.0
0.000000	-0.000000	0.0
0.000001	-0.000000	0.0
0.000002	-0.000000	0.0
0.000003	-0.000000	0.0
0.000007	-0.000000	0.0
0.000014	-0.000000	0.0
0.000027	-0.000000	0.0
0.000051	-0.000000	0.0
0.000096	-0.000000	0.0
0.000174	-0.000000	0.0
0.000307	0.000000	0.0
0.000530	0.000000	0.0
0.000891	0.000000	0.0
0.001457	0.000001	0.0
0.002323	0.000001	0.0
0.003610	0.000002	0.0
0.005476	0.000004	0.0
0.008115	0.000005	0.0
0.011771	0.000008	0.0
0.016748	0.000011	0.0
0.023444	0.000015	0.0
0.032406	0.000021	0.0
0.044458	0.000027	0.0
0.060960	0.000033	0.0
0.084456	0.000037	0.0
0.120552	0.000037	0.0
0.185486	0.000031	0.0
0.000000	0.000000	0.0
0.000000	0.000000	0.0
0.000000	0.000000	0.0
0.000000	0.000000	0.0
0.000000	-0.000000	0.0
0.000000	-0.000000	0.0
-0.000000	-0.000000	0.0
-0.000000	-0.000000	0.0
-0.000000	-0.000000	0.0
-0.000000	-0.000000	0.0
-0.000000	-0.000000	0.0
-0.000000	-0.000000	0.0
-0.000000	-0.000000	0.0
-0.000000	-0.000000	0.0
-0.000000	-0.000000	0.0
-0.000000	-0.000000	0.0
-0.000000	-0.000000	0.0
-0.000000	-0.000000	0.0
-0.000000	-0.000000	0.0
-0.000000	-0.000000	0.0
-0.000000	-0.000000	0.0
-0.000000	-0.000000	0.0
-0.000000	-0.000000	0.0
-0.000000	-0.000000	0.0
-0.000000	-0.000000	0.0
-0.000000	-0.000000	0.0
-0.000000	-0.000000	0.0
-0.000000	-0.000000	0.0
-0.000000	-0.000000	0.0
-0.000000	-0.000000	0.0
-0.000000	-0.000000	0.0
-0.000000	-0.000000	0.0
-0.000000	-0.000000	0.0
-0.000000	-0.000000	0.0
-0.000000	-0.000000	0.0
-0.000000	-0.000000	0.0
-0.000000	-0.000000	0.0
-0.000000	-0.000000	0.0
-0.000000	-0.000000	0.0
-0.000000	-0.000000	0.0
-0.000000	-0.000000	0.0
-0.000000	-0.000000	0.0
-0.000000	-0.000000	0.0
-0.000000	-0.000000	0.0
-0.000000	-0.000000	0.0
-0.000000	-0.000000	0.0
-0.000000	-0.000000	0.0
-0.000000	-0.000000	0.0
-0.000000	-0.000000	0.0
-0.000000	-0.000000	0.0
-0.000000	-0.000000	0.0
-0.000000	-0.000000	0.0
-0.000000	-0.000000	0.0
-0.000000	-0.000000	0.0
-0.000000	-0.000000	0.0
-0.000000	-0.000000	0.0
-0.000000	-0.000000	0.0
-0.000000	-0.000000	0.0
-0.000000	-0.000000	0.0
-0.000000	-0.000000	0.0
-0.000000	-0.000000	0.0
-0.000000	-0.000000	0.0
-0.000000	-0.000000	0.0
-0.000000	-0.000000	0.0
-0.000000	-0.000000	0.0
-0.000000	-0.000000	0.0
-0.000000	-0.000000	0.0
-0.000000	-0.000000	0.0
0.000000	-0.000000	0.0
0.000000	-0.000000	0.0
0.000000	-0.000000	0.0
0.000000	-0.000000	0.0
0.000001	-0.000000	0.0
0.000002	-0.000000	0.0
0.000004	-0.000000	0.0
0.000007	-0.000000	0.0
0.000015	-0.000000	0.0
0.000029	-0.000000	0.0
0.000055	-0.000000	0.0
0.000103	0.000000	0.0
0.000186	0.000000	0.0
0.000330	0.000000	0.0
0.000568	0.000000	0.0
0.000952	0.000001	0.0
0.001555	0.000001	0.0
0.002473	0.000002	0.0
0.003834	0.000003	0.0
0.005799	0.000004	0.0
0.008565	0.000006	0.0
0.012378	0.000008	0.0
0.017537	0.000012	0.0
0.024431	0.000016	0.0
0.033592	0.000022	0.0
0.045816	0.000028	0.0
0.062427	0.000034	0.0
0.085923	0.000038	0.0
0.121855	0.000039	0.0
0.186389	0.000032	0.0
0.000000	0.000000	0.0
0.000000	0.000000	0.0
0.000000	0.000000	0.0
0.000000	0.000000	0.0
0.000000	-0.000000	0.0
0.000000	-0.000000	0.0
-0.000000	-0.000000	0.0
-0.000000	-0.000000	0.0
-0.000000	-0.000000	0.0
-0.000000	-0.000000	0.0
-0.000000	-0.000000	0.0
-0.000000	-0.000000	0.0
-0.000000	-0.000000	0.0
-0.000000	-0.000000	0.0
-0.000000	-0.000000	0.0
-0.000000	-0.000000	0.0
-0.000000	-0.000000	0.0
-0.000000	-0.000000	0.0
-0.000000	-0.000000	0.0
-0.000000	-0.000000	0.0
-0.000000	-0.000000	0.0
-0.000000	-0.000000	0.0
-0.000000	-0.000000	0.0
-0.000000	-0.000000	0.0
-0.000000	-0.000000	0.0
-0.000000	-0.000000	0.0
-0.000000	-0.000000	0.0
-0.000000	-0.000000	0.0
-0.000000	-0.000000	0.0
-0.000000	-0.000000	0.0
-0.000000	-0.000000	0.0
-0.000000	-0.000000	0.0
-0.000000	-0.000000	0.0
-0.000000	-0.000000	0.0
-0.000000	-0.000000	0.0
-0.000000	-0.000000	0.0
-0.000000	-0.000000	0.0
-0.000000	-0.000000	0.0
-0.000000	-0.000000	0.0
-0.000000	-0.000000	0.0
-0.000000	-0.000000	0.0
-0.000000	-0.000000	0.0
-0.000000	-0.000000	0.0
-0.000000	-0.000000	0.0
-0.000000	-0.000000	0.0
-0.000000	-0.000000	0.0
-0.000000	-0.000000	0.0
-0.000000	-0.000000	0.0
-0.000000	-0.000000	0.0
-0.000000	-0.000000	0.0
-0.000000	-0.000000	0.0
-0.000000	-0.000000	0.0
-0.000000	-0.000000	0.0
-0.000000	-0.000000	0.0
-0.000000	-0.000000	0.0
-0.000000	-0.000000	0.0
-0.000000	-0.000000	0.0
-0.000000	-0.000000	0.0
-0.000000	-0.000000	0.0
-0.000000	-0.000000	0.0
-0.000000	-0.000000	0.0
-0.000000	-0.000000	0.0
-0.000000	-0.000000	0.0
-0.000000	-0.000000	0.0
-0.000000	-0.000000	0.0
-0.000000	-0.000000	0.0
-0.000000	-0.000000	0.0
0.000000	-0.000000	0.0
0.000000	-0.000000	0.0
0.000000	-0.000000	0.0
0.000000	-0.000000	0.0
0.000000	-0.000000	0.0
0.000001	-0.000000	0.0
0.000002	-0.000000	0.0
0.000004	-0.000000	0.0
0.000008	-0.000000	0.0
0.000015	-0.000000	0.0
0.000030	-0.000000	0.0
0.000058	0.000000	0.0
0.000108	0.000000	0.0
0.000196	0.000000	0.0
0.000346	0.000000	0.0
0.000595	0.000000	0.0
0.000997	0.000001	0.0
0.001625	0.000001	0.0
0.002581	0.000002	0.0
0.003994	0.000003	0.0
0.006026	0.000004	0.0
0.008879	0.000006	0.0
0.012794	0.000009	0.0
0.018069	0.000012	0.0
0.025085	0.000017	0.0
0.034362	0.000022	0.0
0.046678	0.000029	0.0
0.063338	0.000035	0.0
0.086812	0.000039	0.0
0.122627	0.000039	0.0
0.186914	0.000033	0.0
0.000000	0.000000	0.0
0.000000	0.000000	0.0
0.000000	0.000000	0.0
0.000000	0.000000	0.0
0.000000	-0.000000	0.0
0.000000	-0.000000	0.0
-0.000000	-0.000000	0.0
-0.000000	-0.000000	0.0
-0.000000	-0.000000	0.0
-0.000000	-0.000000	0.0
-0.000000	-0.000000	0.0
-0.000000	-0.000000	0.0
-0.000000	-0.000000	0.0
-0.000000	-0.000000	0.0
-0.000000	-0.000000	0.0
-0.000000	-0.000000	0.0
-0.000000	-0.000000	0.0
-0.000000	-0.000000	0.0
-0.000000	-0.000000	0.0
-0.000000	-0.000000	0.0
-0.000000	-0.000000	0.0
-0.000000	-0.000000	0.0
-0.000000	-0.000000	0.0
-0.000000	-0.000000	0.0
-0.000000	-0.000000	0.0
-0.000000	-0.000000	0.0
-0.000000	-0.000000	0.0
-0.000000	-0.000000	0.0
-0.000000	-0.000000	0.0
-0.000000	-0.000000	0.0
-0.000000	-0.000000	0.0
-0.000000	-0.000000	0.0
-0.000000	-0.000000	0.0
-0.000000	-0.000000	0.0
-0.000000	-0.000000	0.0
-0.000000	-0.000000	0.0
-0.000000	-0.000000	0.0
-0.000000	-0.000000	0.0
-0.000000	-0.000000	0.0
-0.000000	-0.000000	0.0
-0.000000	-0.000000	0.0
-0.000000	-0.000000	0.0
-0.000000	-0.000000	0.0
-0.000000	-0.000000	0.0
-0.000000	-0.000000	0.0
-0.000000	-0.000000	0.0
-0.000000	-0.000000	0.0
-0.000000	-0.000000	0.0
-0.000000	-0.000000	0.0
-0.000000	-0.000000	0.0
-0.000000	-0.000000	0.0
-0.000000	-0.000000	0.0
-0.000000	-0.000000	0.0
-0.000000	-0.000000	0.0
-0.000000	-0.000000	0.0
-0.000000	-0.000000	0.0
-0.000000	-0.000000	0.0
-0.000000	-0.000000	0.0
-0.000000	-0.000000	0.0
-0.000000	-0.000000	0.0
-0.000000	-0.000000	0.0
-0.000000	-0.000000	0.0
-0.000000	-0.000000	0.0
-0.000000	-0.000000	0.0
-0.000000	-0.000000	0.0
-0.000000	-0.000000	0.0
0.000000	-0.000000	0.0
0.000000	-0.000000	0.0
0.000000	-0.000000	0.0
0.000000	-0.000000	0.0
0.000000	-0.000000	0.0
0.000000	-0.000000	0.0
0.000001	-0.000000	0.0
0.000002	-0.000000	0.0
0.000004	-0.000000	0.0
0.000008	-0.000000	0.0
0.000016	0.000000	0.0
0.000032	0.000000	0.0
0.000060	0.000000	0.0
0.000112	0.000000	0.0
0.000203	0.000000	0.0
0.000358	0.000000	0.0
0.000615	0.000000	0.0
0.001029	0.000001	0.0
0.001675	0.000001	0.0
0.002656	0.000002	0.0
0.004104	0.000003	0.0
0.006182	0.000004	0.0
0.009090	0.000006	0.0
0.013071	0.000009	0.0
0.018419	0.000013	0.0
0.025508	0.000017	0.0
0.034851	0.000023	0.0
0.047217	0.000029	0.0
0.063896	0.000035	0.0
0.087348	0.000040	0.0
0.123085	0.000040	0.0
0.187221	0.000033	0.0
0.000000	0.000000	0.0
0.000000	0.000000	0.0
0.000000	0.000000	0.0
0.000000	0.000000	0.0
0.000000	-0.000000	0.0
0.000000	-0.000000	0.0
0.000000	-0.000000	0.0
-0.000000	-0.000000	0.0
-0.000000	-0.000000	0.0
-0.000000	-0.000000	0.0
-0.000000	-0.000000	0.0
-0.000000	-0.000000	0.0
-0.000000	-0.000000	0.0
-0.000000	-0.000000	0.0
-0.000000	-0.000000	0.0
-0.000000	-0.000000	0.0
-0.000000	-0.000000	0.0
-0.000000	-0.000000	0.0
-0.000000	-0.000000	0.0
-0.000000	-0.000000	0.0
-0.000000	-0.000000	0.0
-0.000000	-0.000000	0.0
-0.000000	-0.000000	0.0
-0.000000	-0.000000	0.0
-0.000000	-0.000000	0.0
-0.000000	-0.000000	0.0
-0.000000	-0.000000	0.0
-0.000000	-0.000000	0.0
-0.000000	-0.000000	0.0
-0.000000	-0.000000	0.0
-0.000000	-0.000000	0.0
-0.000000	-0.000000	0.0
-0.000000	-0.000000	0.0
-0.000000	-0.000000	0.0
-0.000000	-0.000000	0.0
-0.000000	-0.000000	0.0
-0.000000	-0.000000	0.0
-0.000000	-0.000000	0.0
-0.000000	-0.000000	0.0
-0.000000	-0.000000	0.0
-0.000000	-0.000000	0.0
-0.000000	-0.000000	0.0
-0.000000	-0.000000	0.0
-0.000000	-0.000000	0.0
-0.000000	-0.000000	0.0
-0.000000	-0.000000	0.0
-0.000000	-0.000000	0.0
-0.000000	-0.000000	0.0
-0.000000	-0.000000	0.0
-0.000000	-0.000000	0.0
-0.000000	-0.000000	0.0
-0.000000	-0.000000	0.0
-0.000000	-0.000000	0.0
-0.000000	-0.000000	0.0
-0.000000	-0.000000	0.0
-0.000000	-0.000000	0.0
-0.000000	-0.000000	0.0
-0.000000	-0.000000	0.0
-0.000000	-0.000000	0.0
-0.000000	-0.000000	0.0
-0.000000	-0.000000	0.0
-0.000000	-0.000000	0.0
-0.000000	-0.000000	0.0
-0.000000	-0.000000	0.0
-0.000000	-0.000000	0.0
0.000000	-0.000000	0.0
0.000000	-0.000000	0.0
0.000000	-0.000000	0.0
0.000000	-0.000000	0.0
0.000000	-0.000000	0.0
0.000000	-0.000000	0.0
0.000000	-0.000000	0.0
0.000001	-0.000000	0.0
0.000002	-0.000000	0.0
0.000004	-0.000000	0.0
0.000008	0.000000	0.0
0.000016	0.000000	0.0
0.000032	0.000000	0.0
0.000062	0.000000	0.0
0.000115	0.000000	0.0
0.000208	0.000000	0.0
0.000366	0.000000	0.0
0.000629	0.000000	0.0
0.001051	0.000001	0.0
0.001709	0.000001	0.0
0.002707	0.000002	0.0
0.004178	0.000003	0.0
0.006285	0.000004	0.0
0.009229	0.000006	0.0
0.013251	0.000009	0.0
0.018643	0.000013	0.0
0.025776	0.000017	0.0
0.035157	0.000023	0.0
0.047548	0.000029	0.0
0.064234	0.000036	0.0
0.087667	0.000040	0.0
0.123354	0.000040	0.0
0.187400	0.000033	0.0
0.000000	0.000000	0.0
0.000000	0.000000	0.0
0.000000	0.000000	0.0
0.000000	0.000000	0.0
0.000000	-0.000000	0.0
0.000000	-0.000000	0.0
0.000000	-0.000000	0.0
-0.000000	-0.000000	0.0
-0.000000	-0.000000	0.0
-0.000000	-0.000000	0.0
-0.000000	-0.000000	0.0
-0.000000	-0.000000	0.0
-0.000000	-0.000000	0.0
-0.000000	-0.000000	0.0
-0.000000	-0.000000	0.0
-0.000000	-0.000000	0.0
-0.000000	-0.000000	0.0
-0.000000	-0.000000	0.0
-0.000000	-0.000000	0.0
-0.000000	-0.000000	0.0
-0.000000	-0.000000	0.0
-0.000000	-0.000000	0.0
-0.000000	-0.000000	0.0
-0.000000	-0.000000	0.0
-0.000000	-0.000000	0.0
-0.000000	-0.000000	0.0
-0.000000	-0.000000	0.0
-0.000000	-0.000000	0.0
-0.000000	-0.000000	0.0
-0.000000	-0.000000	0.0
-0.000000	-0.000000	0.0
-0.000000	-0.000000	0.0
-0.000000	-0.000000	0.0
-0.000000	-0.000000	0.0
-0.000000	-0.000000	0.0
-0.000000	-0.000000	0.0
-0.000000	-0.000000	0.0
-0.000000	-0.000000	0.0
-0.000000	-0.000000	0.0
-0.000000	-0.000000	0.0
-0.000000	-0.000000	0.0
-0.000000	-0.000000	0.0
-0.000000	-0.000000	0.0
-0.000000	-0.000000	0.0
-0.000000	-0.000000	0.0
-0.000000	-0.000000	0.0
-0.000000	-0.000000	0.0
-0.000000	-0.000000	0.0
-0.000000	-0.000000	0.0
-0.000000	-0.000000	0.0
-0.000000	-0.000000	0.0
-0.000000	-0.000000	0.0
-0.000000	-0.000000	0.0
-0.000000	-0.000000	0.0
-0.000000	-0.000000	0.0
-0.000000	-0.000000	0.0
-0.000000	-0.000000	0.0
-0.000000	-0.000000	0.0
-0.000000	-0.000000	0.0
-0.000000	-0.000000	0.0
-0.000000	-0.000000	0.0
-0.000000	-0.000000	0.0
-0.000000	-0.000000	0.0
-0.000000	-0.000000	0.0
-0.000000	-0.000000	0.0
0.000000	-0.000000	0.0
0.000000	-0.000000	0.0
0.000000	-0.000000	0.0
0.000000	-0.000000	0.0
0.000000	-0.000000	0.0
0.000000	-0.000000	0.0
0.000000	-0.000000	0.0
0.000001	-0.000000	0.0
0.000002	-0.000000	0.0
0.000004	0.000000	0.0
0.000008	0.000000	0.0
0.000017	0.000000	0.0
0.000033	0.000000	0.0
0.000063	0.000000	0.0
0.000116	0.000000	0.0
0.000211	0.000000	0.0
0.000372	0.000000	0.0
0.000638	0.000000	0.0
0.001065	0.000001	0.0
0.001732	0.000001	0.0
0.002741	0.000002	0.0
0.004226	0.000003	0.0
0.006351	0.000005	0.0
0.009318	0.000007	0.0
0.013365	0.000009	0.0
0.018783	0.000013	0.0
0.025941	0.000018	0.0
0.035343	0.000023	0.0
0.047748	0.000029	0.0
0.064435	0.000036	0.0
0.087855	0.000040	0.0
0.123511	0.000040	0.0
0.187504	0.000033	0.0
0.000000	0.000000	0.0
0.000000	0.000000	0.0
0.000000	0.000000	0.0
0.000000	0.000000	0.0
0.000000	-0.000000	0.0
0.000000	-0.000000	0.0
0.000000	-0.000000	0.0
0.000000	-0.000000	0.0
-0.000000	-0.000000	0.0
-0.000000	-0.000000	0.0
-0.000000	-0.000000	0.0
-0.000000	-0.000000	0.0
-0.000000	-0.000000	0.0
-0.000000	-0.000000	0.0
-0.000000	-0.000000	0.0
-0.000000	-0.000000	0.0
-0.000000	-0.000000	0.0
-0.000000	-0.000000	0.0
-0.000000	-0.000000	0.0
-0.000000	-0.000000	0.0
-0.000000	-0.000000	0.0
-0.000000	-0.000000	0.0
-0.000000	-0.000000	0.0
-0.000000	-0.000000	0.0
-0.000000	-0.000000	0.0
-0.000000	-0.000000	0.0
-0.000000	-0.000000	0.0
-0.000000	-0.000000	0.0
-0.000000	-0.000000	0.0
-0.000000	-0.000000	0.0
-0.000000	-0.000000	0.0
-0.000000	-0.000000	0.0
-0.000000	-0.000000	0.0
-0.000000	-0.000000	0.0
-0.000000	-0.000000	0.0
-0.000000	-0.000000	0.0
-0.000000	-0.000000	0.0
-0.000000	-0.000000	0.0
-0.000000	-0.000000	0.0
-0.000000	-0.000000	0.0
-0.000000	-0.000000	0.0
-0.000000	-0.000000	0.0
-0.000000	-0.000000	0.0
-0.000000	-0.000000	0.0
-0.000000	-0.000000	0.0
-0.000000	-0.000000	0.0
-0.000000	-0.000000	0.0
-0.000000	-0.000000	0.0
-0.000000	-0.000000	0.0
-0.000000	-0.000000	0.0
-0.000000	-0.000000	0.0
-0.000000	-0.000000	0.0
-0.000000	-0.000000	0.0
-0.000000	-0.000000	0.0
-0.000000	-0.000000	0.0
-0.000000	-0.000000	0.0
-0.000000	-0.000000	0.0
-0.000000	-0.000000	0.0
-0.000000	-0.000000	0.0
-0.000000	-0.000000	0.0
-0.000000	-0.000000	0.0
-0.000000	-0.000000	0.0
-0.000000	-0.000000	0.0
-0.000000	-0.000000	0.0
0.000000	-0.000000	0.0
0.000000	-0.000000	0.0
0.000000	-0.000000	0.0
0.000000	-0.000000	0.0
0.000000	-0.000000	0.0
0.000000	-0.000000	0.0
0.000000	-0.000000	0.0
0.000000	-0.000000	0.0
0.000001	-0.000000	0.0
0.000002	0.000000	0.0
0.000004	0.000000	0.0
0.000008	0.000000	0.0
0.000017	0.000000	0.0
0.000033	0.000000	0.0
0.000063	0.000000	0.0
0.000118	0.000000	0.0
0.000213	0.000000	0.0
0.000375	0.000000	0.0
0.000644	0.000000	0.0
0.001075	0.000001	0.0
0.001746	0.000001	0.0
0.002762	0.000002	0.0
0.004256	0.000003	0.0
0.006393	0.000005	0.0
0.009373	0.000007	0.0
0.013435	0.000009	0.0
0.018869	0.000013	0.0
0.026041	0.000018	0.0
0.035455	0.000023	0.0
0.047866	0.000030	0.0
0.064554	0.000036	0.0
0.087965	0.000040	0.0
0.123602	0.000040	0.0
0.187564	0.000034	0.0
0.000000	0.000000	0.0
0.000000	0.000000	0.0
0.000000	0.000000	0.0
0.000000	-0.000000	0.0
0.000000	-0.000000	0.0
0.000000	-0.000000	0.0
0.000000	-0.000000	0.0
0.000000	-0.000000	0.0
-0.000000	-0.000000	0.0
-0.000000	-0.000000	0.0
-0.000000	-0.000000	0.0
-0.000000	-0.000000	0.0
-0.000000	-0.000000	0.0
-0.000000	-0.000000	0.0
-0.000000	-0.000000	0.0
-0.000000	-0.000000	0.0
-0.000000	-0.000000	0.0
-0.000000	-0.000000	0.0
-0.000000	-0.000000	0.0
-0.000000	-0.000000	0.0
-0.000000	-0.000000	0.0