# vtk DataFile Version 3.0
Header
ASCII
DATASET RECTILINEAR_GRID
DIMENSIONS 98 98 1
X_COORDINATES 98 double
0.030000 0.050000 0.070000 0.090000 0.110000 0.130000 0.150000 0.170000 0.190000 0.210000 0.230000 0.250000 0.270000 0.290000 0.310000 0.330000 0.350000 0.370000 0.390000 0.410000 0.430000 0.450000 0.470000 0.490000 0.510000 0.530000 0.550000 0.570000 0.590000 0.610000 0.630000 0.650000 0.670000 0.690000 0.710000 0.730000 0.750000 0.770000 0.790000 0.810000 0.830000 0.850000 0.870000 0.890000 0.910000 0.930000 0.950000 0.970000 0.990000 1.010000 1.030000 1.050000 1.070000 1.090000 1.110000 1.130000 1.150000 1.170000 1.190000 1.210000 1.230000 1.250000 1.270000 1.290000 1.310000 1.330000 1.350000 1.370000 1.390000 1.410000 1.430000 1.450000 1.470000 1.490000 1.510000 1.530000 1.550000 1.570000 1.590000 1.610000 1.630000 1.650000 1.670000 1.690000 1.710000 1.730000 1.750000 1.770000 1.790000 1.810000 1.830000 1.850000 1.870000 1.890000 1.910000 1.930000 1.950000 1.970000 
Y_COORDINATES 98 double
0.030000 0.050000 0.070000 0.090000 0.110000 0.130000 0.150000 0.170000 0.190000 0.210000 0.230000 0.250000 0.270000 0.290000 0.310000 0.330000 0.350000 0.370000 0.390000 0.410000 0.430000 0.450000 0.470000 0.490000 0.510000 0.530000 0.550000 0.570000 0.590000 0.610000 0.630000 0.650000 0.670000 0.690000 0.710000 0.730000 0.750000 0.770000 0.790000 0.810000 0.830000 0.850000 0.870000 0.890000 0.910000 0.930000 0.950000 0.970000 0.990000 1.010000 1.030000 1.050000 1.070000 1.090000 1.110000 1.130000 1.150000 1.170000 1.190000 1.210000 1.230000 1.250000 1.270000 1.290000 1.310000 1.330000 1.350000 1.370000 1.390000 1.410000 1.430000 1.450000 1.470000 1.490000 1.510000 1.530000 1.550000 1.570000 1.590000 1.610000 1.630000 1.650000 1.670000 1.690000 1.710000 1.730000 1.750000 1.770000 1.790000 1.810000 1.830000 1.850000 1.870000 1.890000 1.910000 1.930000 1.950000 1.970000 
Z_COORDINATES 1 double
0.0
POINT_DATA 9604
VECTORS velocity double
-0.224034	-0.226472	0.0
-0.376568	-0.511309	0.0
-0.836812	-1.568595	0.0
-0.642643	-1.025977	0.0
-0.423868	-2.274976	0.0
-0.453474	-0.486814	0.0
-0.039694	-0.036511	0.0
0.035790	0.019431	0.0
0.018694	0.007183	0.0
0.003892	0.000177	0.0
-0.000987	-0.001791	0.0
-0.002170	-0.002232	0.0
-0.002416	-0.002320	0.0
-0.002463	-0.002336	0.0
-0.002472	-0.002339	0.0
-0.002473	-0.002339	0.0
-0.002473	-0.002339	0.0
-0.002473	-0.002339	0.0
-0.002474	-0.002340	0.0
-0.002474	-0.002339	0.0
-0.002474	-0.002340	0.0
-0.002474	-0.002339	0.0
-0.002473	-0.002339	0.0
-0.002474	-0.002339	0.0
-0.002473	-0.002339	0.0
-0.002473	-0.002339	0.0
-0.002473	-0.002339	0.0
-0.002474	-0.002339	0.0
-0.002473	-0.002339	0.0
-0.002473	-0.002339	0.0
-0.002474	-0.002339	0.0
-0.002473	-0.002339	0.0
-0.002473	-0.002339	0.0
-0.002473	-0.002339	0.0
-0.002473	-0.002339	0.0
-0.002473	-0.002339	0.0
-0.002473	-0.002339	0.0
-0.002473	-0.002339	0.0
-0.002473	-0.002340	0.0
-0.002474	-0.002339	0.0
-0.002474	-0.002339	0.0
-0.002473	-0.002339	0.0
-0.002473	-0.002339	0.0
-0.002473	-0.002340	0.0
-0.002474	-0.002339	0.0
-0.002474	-0.002340	0.0
-0.002474	-0.002339	0.0
-0.002474	-0.002340	0.0
-0.002474	-0.002339	0.0
-0.002474	-0.002340	0.0
-0.002474	-0.002339	0.0
-0.002474	-0.002339	0.0
-0.002473	-0.002339	0.0
-0.002474	-0.002339	0.0
-0.002473	-0.002339	0.0
-0.002473	-0.002339	0.0
-0.002473	-0.002339	0.0
-0.002473	-0.002339	0.0
-0.002473	-0.002339	0.0
-0.002473	-0.002340	0.0
-0.002474	-0.002339	0.0
-0.002473	-0.002339	0.0
-0.002473	-0.002339	0.0
-0.002473	-0.002339	0.0
-0.002473	-0.002339	0.0
-0.002472	-0.002339	0.0
-0.002472	-0.002338	0.0
-0.002471	-0.002337	0.0
-0.002468	-0.002335	0.0
-0.002465	-0.002332	0.0
-0.002458	-0.002327	0.0
-0.002447	-0.002319	0.0
-0.002430	-0.002305	0.0
-0.002402	-0.002283	0.0
-0.002359	-0.002250	0.0
-0.002293	-0.002199	0.0
-0.002192	-0.002123	0.0
-0.002042	-0.002009	0.0
-0.001823	-0.001844	0.0
-0.001508	-0.001609	0.0
-0.001065	-0.001280	0.0
-0.000450	-0.000826	0.0
0.000387	-0.000212	0.0
0.001509	0.000608	0.0
0.002987	0.001683	0.0
0.004907	0.003076	0.0
0.007364	0.004856	0.0
0.010467	0.007107	0.0
0.014340	0.009929	0.0
0.019119	0.013441	0.0
0.024956	0.017795	0.0
0.032019	0.023164	0.0
0.040510	0.029723	0.0
0.050762	0.037524	0.0
0.063597	0.046221	0.0
0.081513	0.054699	0.0
0.112479	0.061381	0.0
0.183869	0.068655	0.0
-0.521996	-0.398407	0.0
-1.156119	-1.182517	0.0
-1.074613	-1.670965	0.0
-1.101271	-4.329233	0.0
-3.393650	-12.353899	0.0
-2.955638	-2.005980	0.0
-0.336512	-0.183421	0.0
0.118106	0.086422	0.0
0.069461	0.024661	0.0
0.015354	0.001137	0.0
0.000883	-0.004079	0.0
-0.002021	-0.005063	0.0
-0.002539	-0.005236	0.0
-0.002626	-0.005264	0.0
-0.002640	-0.005269	0.0
-0.002642	-0.005270	0.0
-0.002643	-0.005270	0.0
-0.002643	-0.005270	0.0
-0.002643	-0.005271	0.0
-0.002643	-0.005270	0.0
-0.002643	-0.005271	0.0
-0.002643	-0.005270	0.0
-0.002643	-0.005270	0.0
-0.002643	-0.005270	0.0
-0.002643	-0.005270	0.0
-0.002643	-0.005270	0.0
-0.002643	-0.005270	0.0
-0.002643	-0.005270	0.0
-0.002643	-0.005270	0.0
-0.002643	-0.005270	0.0
-0.002643	-0.005270	0.0
-0.002643	-0.005270	0.0
-0.002643	-0.005270	0.0
-0.002643	-0.005270	0.0
-0.002643	-0.005270	0.0
-0.002643	-0.005270	0.0
-0.002643	-0.005270	0.0
-0.002643	-0.005270	0.0
-0.002643	-0.005270	0.0
-0.002643	-0.005270	0.0
-0.002643	-0.005270	0.0
-0.002643	-0.005270	0.0
-0.002643	-0.005270	0.0
-0.002643	-0.005270	0.0
-0.002643	-0.005270	0.0
-0.002643	-0.005271	0.0
-0.002643	-0.005270	0.0
-0.002643	-0.005270	0.0
-0.002643	-0.005270	0.0
-0.002643	-0.005270	0.0
-0.002643	-0.005270	0.0
-0.002643	-0.005270	0.0
-0.002643	-0.005270	0.0
-0.002643	-0.005270	0.0
-0.002643	-0.005270	0.0
-0.002643	-0.005270	0.0
-0.002643	-0.005270	0.0
-0.002643	-0.005270	0.0
-0.002643	-0.005270	0.0
-0.002643	-0.005270	0.0
-0.002643	-0.005270	0.0
-0.002643	-0.005270	0.0
-0.002642	-0.005270	0.0
-0.002642	-0.005270	0.0
-0.002642	-0.005269	0.0
-0.002641	-0.005269	0.0
-0.002640	-0.005268	0.0
-0.002638	-0.005266	0.0
-0.002635	-0.005263	0.0
-0.002629	-0.005258	0.0
-0.002618	-0.005249	0.0
-0.002601	-0.005235	0.0
-0.002573	-0.005212	0.0
-0.002528	-0.005175	0.0
-0.002458	-0.005119	0.0
-0.002351	-0.005032	0.0
-0.002189	-0.004902	0.0
-0.001948	-0.004710	0.0
-0.001596	-0.004432	0.0
-0.001091	-0.004035	0.0
-0.000381	-0.003479	0.0
0.000601	-0.002715	0.0
0.001937	-0.001683	0.0
0.003722	-0.000309	0.0
0.006067	0.001489	0.0
0.009102	0.003808	0.0
0.012971	0.006762	0.0
0.017835	0.010478	0.0
0.023875	0.015112	0.0
0.031289	0.020846	0.0
0.040293	0.027904	0.0
0.051118	0.036556	0.0
0.064024	0.047078	0.0
0.079367	0.059595	0.0
0.097895	0.073657	0.0
0.121726	0.087541	0.0
0.157380	0.098036	0.0
0.226689	0.103819	0.0
-1.732760	-0.962870	0.0
-1.604533	-0.952191	0.0
-5.737899	-5.964177	0.0
-5.296091	-2.999045	0.0
-16.619807	-61.081425	0.0
-19.372535	-9.447131	0.0
-1.980887	0.477723	0.0
0.933689	0.567609	0.0
0.334608	0.100217	0.0
0.055182	0.011818	0.0
0.006431	-0.001946	0.0
-0.000823	-0.003982	0.0
-0.001852	-0.004279	0.0
-0.001996	-0.004323	0.0
-0.002016	-0.004329	0.0
-0.002019	-0.004330	0.0
-0.002019	-0.004330	0.0
-0.002020	-0.004330	0.0
-0.002020	-0.004330	0.0
-0.002020	-0.004330	0.0
-0.002020	-0.004330	0.0
-0.002020	-0.004330	0.0
-0.002020	-0.004330	0.0
-0.002020	-0.004330	0.0
-0.002020	-0.004330	0.0
-0.002020	-0.004330	0.0
-0.002020	-0.004330	0.0
-0.002020	-0.004330	0.0
-0.002019	-0.004330	0.0
-0.002020	-0.004330	0.0
-0.002020	-0.004330	0.0
-0.002019	-0.004330	0.0
-0.002020	-0.004330	0.0
-0.002020	-0.004330	0.0
-0.002020	-0.004330	0.0
-0.002019	-0.004330	0.0
-0.002020	-0.004330	0.0
-0.002020	-0.004330	0.0
-0.002020	-0.004330	0.0
-0.002020	-0.004330	0.0
-0.002020	-0.004330	0.0
-0.002019	-0.004330	0.0
-0.002020	-0.004330	0.0
-0.002020	-0.004330	0.0
-0.002020	-0.004330	0.0
-0.002020	-0.004330	0.0
-0.002020	-0.004330	0.0
-0.002020	-0.004330	0.0
-0.002020	-0.004331	0.0
-0.002020	-0.004330	0.0
-0.002020	-0.004330	0.0
-0.002020	-0.004330	0.0
-0.002020	-0.004330	0.0
-0.002020	-0.004330	0.0
-0.002019	-0.004330	0.0
-0.002019	-0.004330	0.0
-0.002019	-0.004330	0.0
-0.002020	-0.004330	0.0
-0.002020	-0.004330	0.0
-0.002019	-0.004330	0.0
-0.002020	-0.004330	0.0
-0.002020	-0.004330	0.0
-0.002019	-0.004330	0.0
-0.002019	-0.004329	0.0
-0.002018	-0.004329	0.0
-0.002017	-0.004328	0.0
-0.002016	-0.004327	0.0
-0.002014	-0.004324	0.0
-0.002008	-0.004320	0.0
-0.002000	-0.004313	0.0
-0.001986	-0.004301	0.0
-0.001963	-0.004281	0.0
-0.001925	-0.004249	0.0
-0.001864	-0.004197	0.0
-0.001770	-0.004118	0.0
-0.001625	-0.003998	0.0
-0.001405	-0.003816	0.0
-0.001080	-0.003548	0.0
-0.000605	-0.003161	0.0
0.000074	-0.002610	0.0
0.001029	-0.001839	0.0
0.002347	-0.000783	0.0
0.004133	0.000643	0.0
0.006513	0.002532	0.0
0.009629	0.004998	0.0
0.013644	0.008164	0.0
0.018738	0.012177	0.0
0.025111	0.017201	0.0
0.032980	0.023424	0.0
0.042582	0.031074	0.0
0.054171	0.040423	0.0
0.068015	0.051806	0.0
0.084394	0.065585	0.0
0.103630	0.081977	0.0
0.126256	0.100527	0.0
0.153702	0.119052	0.0
0.190687	0.132666	0.0
0.254814	0.136055	0.0
-0.823756	-0.683210	0.0
-2.830022	-0.742046	0.0
-2.517168	-5.101774	0.0
-31.463470	-33.133642	0.0
-16.761353	-7.584761	0.0
1.600739	-28.694238	0.0
-3.704189	16.742261	0.0
11.798684	2.456713	0.0
1.447840	0.286155	0.0
0.155445	0.030877	0.0
0.015904	0.001220	0.0
0.000713	-0.002300	0.0
-0.000990	-0.002730	0.0
-0.001188	-0.002784	0.0
-0.001212	-0.002791	0.0
-0.001215	-0.002792	0.0
-0.001216	-0.002792	0.0
-0.001216	-0.002793	0.0
-0.001216	-0.002793	0.0
-0.001216	-0.002793	0.0
-0.001216	-0.002793	0.0
-0.001216	-0.002793	0.0
-0.001216	-0.002793	0.0
-0.001216	-0.002793	0.0
-0.001216	-0.002792	0.0
-0.001216	-0.002793	0.0
-0.001216	-0.002792	0.0
-0.001216	-0.002793	0.0
-0.001216	-0.002792	0.0
-0.001215	-0.002792	0.0
-0.001215	-0.002792	0.0
-0.001216	-0.002792	0.0
-0.001216	-0.002792	0.0
-0.001216	-0.002792	0.0
-0.001216	-0.002792	0.0
-0.001216	-0.002792	0.0
-0.001216	-0.002793	0.0
-0.001216	-0.002792	0.0
-0.001216	-0.002793	0.0
-0.001216	-0.002793	0.0
-0.001216	-0.002792	0.0
-0.001216	-0.002792	0.0
-0.001216	-0.002792	0.0
-0.001216	-0.002793	0.0
-0.001216	-0.002793	0.0
-0.001216	-0.002793	0.0
-0.001216	-0.002793	0.0
-0.001216	-0.002793	0.0
-0.001216	-0.002793	0.0
-0.001216	-0.002793	0.0
-0.001216	-0.002793	0.0
-0.001216	-0.002792	0.0
-0.001216	-0.002792	0.0
-0.001216	-0.002792	0.0
-0.001216	-0.002792	0.0
-0.001215	-0.002792	0.0
-0.001215	-0.002792	0.0
-0.001216	-0.002793	0.0
-0.001216	-0.002792	0.0
-0.001216	-0.002792	0.0
-0.001216	-0.002792	0.0
-0.001216	-0.002792	0.0
-0.001215	-0.002792	0.0
-0.001215	-0.002792	0.0
-0.001214	-0.002791	0.0
-0.001213	-0.002790	0.0
-0.001211	-0.002789	0.0
-0.001208	-0.002786	0.0
-0.001202	-0.002780	0.0
-0.001191	-0.002771	0.0
-0.001174	-0.002755	0.0
-0.001145	-0.002730	0.0
-0.001098	-0.002689	0.0
-0.001023	-0.002624	0.0
-0.000905	-0.002524	0.0
-0.000725	-0.002370	0.0
-0.000453	-0.002140	0.0
-0.000050	-0.001801	0.0
0.000536	-0.001310	0.0
0.001374	-0.000614	0.0
0.002550	0.000358	0.0
0.004168	0.001687	0.0
0.006355	0.003474	0.0
0.009259	0.005837	0.0
0.013048	0.008906	0.0
0.017909	0.012833	0.0
0.024049	0.017786	0.0
0.031690	0.023951	0.0
0.041074	0.031542	0.0
0.052460	0.040812	0.0
0.066122	0.052062	0.0
0.082347	0.065671	0.0
0.101428	0.082072	0.0
0.123653	0.101599	0.0
0.149376	0.123903	0.0
0.179433	0.146609	0.0
0.217027	0.163525	0.0
0.276487	0.165685	0.0
-2.603398	-0.417098	0.0
-12.915518	-3.337044	0.0
-66.439687	-17.899140	0.0
-7.858261	-17.239881	0.0
-78.730199	-83.409363	0.0
-48.946387	65.492802	0.0
88.132806	28.457868	0.0
11.730159	3.322293	0.0
1.254461	0.351839	0.0
0.131757	0.036468	0.0
0.013600	0.002703	0.0
0.000959	-0.001008	0.0
-0.000427	-0.001429	0.0
-0.000584	-0.001479	0.0
-0.000603	-0.001485	0.0
-0.000605	-0.001486	0.0
-0.000605	-0.001486	0.0
-0.000605	-0.001486	0.0
-0.000605	-0.001486	0.0
-0.000605	-0.001486	0.0
-0.000605	-0.001486	0.0
-0.000605	-0.001486	0.0
-0.000606	-0.001487	0.0
-0.000606	-0.001486	0.0
-0.000605	-0.001486	0.0
-0.000605	-0.001486	0.0
-0.000605	-0.001486	0.0
-0.000605	-0.001486	0.0
-0.000605	-0.001486	0.0
-0.000605	-0.001485	0.0
-0.000605	-0.001486	0.0
-0.000605	-0.001486	0.0
-0.000605	-0.001486	0.0
-0.000605	-0.001486	0.0
-0.000605	-0.001486	0.0
-0.000605	-0.001486	0.0
-0.000605	-0.001486	0.0
-0.000605	-0.001486	0.0
-0.000605	-0.001486	0.0
-0.000605	-0.001486	0.0
-0.000605	-0.001486	0.0
-0.000605	-0.001486	0.0
-0.000605	-0.001486	0.0
-0.000605	-0.001486	0.0
-0.000605	-0.001486	0.0
-0.000605	-0.001486	0.0
-0.000605	-0.001486	0.0
-0.000606	-0.001486	0.0
-0.000606	-0.001486	0.0
-0.000605	-0.001486	0.0
-0.000605	-0.001486	0.0
-0.000605	-0.001486	0.0
-0.000605	-0.001486	0.0
-0.000605	-0.001486	0.0
-0.000605	-0.001486	0.0
-0.000605	-0.001486	0.0
-0.000605	-0.001486	0.0
-0.000605	-0.001486	0.0
-0.000605	-0.001486	0.0
-0.000605	-0.001486	0.0
-0.000605	-0.001486	0.0
-0.000605	-0.001486	0.0
-0.000605	-0.001486	0.0
-0.000604	-0.001485	0.0
-0.000604	-0.001485	0.0
-0.000602	-0.001483	0.0
-0.000600	-0.001481	0.0
-0.000596	-0.001477	0.0
-0.000589	-0.001471	0.0
-0.000576	-0.001460	0.0
-0.000555	-0.001441	0.0
-0.000521	-0.001411	0.0
-0.000466	-0.001361	0.0
-0.000378	-0.001284	0.0
-0.000240	-0.001163	0.0
-0.000028	-0.000979	0.0
0.000291	-0.000704	0.0
0.000763	-0.000298	0.0
0.001450	0.000287	0.0
0.002429	0.001117	0.0
0.003798	0.002270	0.0
0.005679	0.003846	0.0
0.008215	0.005959	0.0
0.011570	0.008743	0.0
0.015933	0.012346	0.0
0.021508	0.016937	0.0
0.028520	0.022699	0.0
0.037207	0.029837	0.0
0.047822	0.038577	0.0
0.060637	0.049186	0.0
0.075936	0.061982	0.0
0.094019	0.077370	0.0
0.115186	0.095845	0.0
0.139718	0.117865	0.0
0.167867	0.143274	0.0
0.200061	0.169740	0.0
0.238319	0.190195	0.0
0.294212	0.192413	0.0
-0.564312	-0.528103	0.0
-2.228686	-3.158363	0.0
-10.618441	-21.230156	0.0
-32.542928	0.783126	0.0
65.344192	-45.400428	0.0
109.596279	106.995636	0.0
23.511628	15.465438	0.0
3.321544	1.769267	0.0
0.417757	0.196254	0.0
0.050263	0.021361	0.0
0.005763	0.001830	0.0
0.000460	-0.000382	0.0
-0.000171	-0.000638	0.0
-0.000246	-0.000669	0.0
-0.000256	-0.000672	0.0
-0.000257	-0.000673	0.0
-0.000257	-0.000673	0.0
-0.000257	-0.000673	0.0
-0.000257	-0.000673	0.0
-0.000257	-0.000673	0.0
-0.000257	-0.000673	0.0
-0.000257	-0.000673	0.0
-0.000258	-0.000673	0.0
-0.000258	-0.000673	0.0
-0.000257	-0.000673	0.0
-0.000257	-0.000673	0.0
-0.000257	-0.000673	0.0
-0.000257	-0.000673	0.0
-0.000257	-0.000673	0.0
-0.000257	-0.000673	0.0
-0.000257	-0.000673	0.0
-0.000257	-0.000673	0.0
-0.000257	-0.000673	0.0
-0.000257	-0.000673	0.0
-0.000257	-0.000673	0.0
-0.000257	-0.000673	0.0
-0.000257	-0.000673	0.0
-0.000257	-0.000673	0.0
-0.000257	-0.000673	0.0
-0.000257	-0.000673	0.0
-0.000257	-0.000673	0.0
-0.000257	-0.000673	0.0
-0.000257	-0.000673	0.0
-0.000257	-0.000673	0.0
-0.000257	-0.000673	0.0
-0.000257	-0.000673	0.0
-0.000257	-0.000673	0.0
-0.000258	-0.000673	0.0
-0.000258	-0.000673	0.0
-0.000257	-0.000673	0.0
-0.000257	-0.000673	0.0
-0.000257	-0.000673	0.0
-0.000257	-0.000673	0.0
-0.000257	-0.000673	0.0
-0.000257	-0.000673	0.0
-0.000257	-0.000673	0.0
-0.000257	-0.000673	0.0
-0.000257	-0.000673	0.0
-0.000257	-0.000673	0.0
-0.000257	-0.000673	0.0
-0.000257	-0.000673	0.0
-0.000257	-0.000673	0.0
-0.000257	-0.000673	0.0
-0.000256	-0.000672	0.0
-0.000255	-0.000671	0.0
-0.000254	-0.000670	0.0
-0.000251	-0.000667	0.0
-0.000247	-0.000663	0.0
-0.000239	-0.000656	0.0
-0.000224	-0.000642	0.0
-0.000201	-0.000621	0.0
-0.000162	-0.000586	0.0
-0.000099	-0.000529	0.0
0.000001	-0.000440	0.0
0.000157	-0.000301	0.0
0.000396	-0.000090	0.0
0.000756	0.000226	0.0
0.001289	0.000691	0.0
0.002062	0.001360	0.0
0.003162	0.002307	0.0
0.004698	0.003622	0.0
0.006802	0.005413	0.0
0.009631	0.007808	0.0
0.013365	0.010952	0.0
0.018203	0.015010	0.0
0.024363	0.020160	0.0
0.032082	0.026597	0.0
0.041606	0.034535	0.0
0.053197	0.044208	0.0
0.067130	0.055888	0.0
0.083694	0.069902	0.0
0.103195	0.086670	0.0
0.125945	0.106736	0.0
0.152234	0.130678	0.0
0.182284	0.158567	0.0
0.216281	0.188286	0.0
0.255371	0.212276	0.0
0.308741	0.215547	0.0
-0.046875	-0.053945	0.0
-0.238242	-0.397430	0.0
0.408679	-2.274355	0.0
18.956355	-4.598877	0.0
31.316797	92.224389	0.0
16.139160	23.669865	0.0
3.728194	3.679067	0.0
0.639690	0.496029	0.0
0.095846	0.063128	0.0
0.013299	0.007640	0.0
0.001701	0.000713	0.0
0.000141	-0.000144	0.0
-0.000065	-0.000250	0.0
-0.000092	-0.000264	0.0
-0.000095	-0.000265	0.0
-0.000096	-0.000266	0.0
-0.000096	-0.000266	0.0
-0.000096	-0.000266	0.0
-0.000096	-0.000265	0.0
-0.000096	-0.000266	0.0
-0.000096	-0.000266	0.0
-0.000096	-0.000266	0.0
-0.000096	-0.000266	0.0
-0.000096	-0.000266	0.0
-0.000096	-0.000266	0.0
-0.000096	-0.000266	0.0
-0.000096	-0.000265	0.0
-0.000096	-0.000265	0.0
-0.000096	-0.000266	0.0
-0.000096	-0.000265	0.0
-0.000096	-0.000266	0.0
-0.000096	-0.000266	0.0
-0.000096	-0.000266	0.0
-0.000096	-0.000265	0.0
-0.000096	-0.000266	0.0
-0.000096	-0.000266	0.0
-0.000096	-0.000266	0.0
-0.000096	-0.000266	0.0
-0.000096	-0.000266	0.0
-0.000096	-0.000266	0.0
-0.000096	-0.000265	0.0
-0.000096	-0.000266	0.0
-0.000096	-0.000265	0.0
-0.000096	-0.000266	0.0
-0.000096	-0.000266	0.0
-0.000096	-0.000266	0.0
-0.000096	-0.000266	0.0
-0.000096	-0.000266	0.0
-0.000096	-0.000266	0.0
-0.000096	-0.000265	0.0
-0.000096	-0.000266	0.0
-0.000096	-0.000265	0.0
-0.000096	-0.000265	0.0
-0.000096	-0.000266	0.0
-0.000096	-0.000266	0.0
-0.000096	-0.000266	0.0
-0.000096	-0.000265	0.0
-0.000096	-0.000265	0.0
-0.000096	-0.000266	0.0
-0.000096	-0.000265	0.0
-0.000096	-0.000265	0.0
-0.000095	-0.000265	0.0
-0.000095	-0.000265	0.0
-0.000095	-0.000265	0.0
-0.000094	-0.000264	0.0
-0.000092	-0.000262	0.0
-0.000089	-0.000259	0.0
-0.000084	-0.000255	0.0
-0.000075	-0.000246	0.0
-0.000059	-0.000231	0.0
-0.000033	-0.000208	0.0
0.000009	-0.000169	0.0
0.000078	-0.000105	0.0
0.000188	-0.000006	0.0
0.000360	0.000149	0.0
0.000622	0.000383	0.0
0.001018	0.000735	0.0
0.001602	0.001250	0.0
0.002447	0.001992	0.0
0.003648	0.003040	0.0
0.005322	0.004491	0.0
0.007611	0.006463	0.0
0.010681	0.009093	0.0
0.014721	0.012537	0.0
0.019940	0.016967	0.0
0.026567	0.022570	0.0
0.034843	0.029549	0.0
0.045020	0.038121	0.0
0.057362	0.048523	0.0
0.072145	0.061029	0.0
0.089660	0.075968	0.0
0.110215	0.093768	0.0
0.134132	0.115007	0.0
0.161721	0.140367	0.0
0.193213	0.170142	0.0
0.228689	0.202514	0.0
0.268677	0.229747	0.0
0.320360	0.234654	0.0
0.022942	0.038709	0.0
0.102155	0.123314	0.0
0.663980	1.029672	0.0
2.804900	13.698373	0.0
3.669810	12.453021	0.0
1.865177	3.404179	0.0
0.509215	0.642689	0.0
0.104074	0.103126	0.0
0.018169	0.015120	0.0
0.002866	0.002041	0.0
0.000404	0.000198	0.0
0.000031	-0.000054	0.0
-0.000023	-0.000088	0.0
-0.000030	-0.000092	0.0
-0.000032	-0.000093	0.0
-0.000032	-0.000093	0.0
-0.000032	-0.000093	0.0
-0.000032	-0.000093	0.0
-0.000032	-0.000093	0.0
-0.000032	-0.000093	0.0
-0.000032	-0.000093	0.0
-0.000032	-0.000094	0.0
-0.000032	-0.000093	0.0
-0.000032	-0.000093	0.0
-0.000032	-0.000093	0.0
-0.000032	-0.000093	0.0
-0.000032	-0.000093	0.0
-0.000032	-0.000093	0.0
-0.000032	-0.000093	0.0
-0.000032	-0.000093	0.0
-0.000032	-0.000093	0.0
-0.000032	-0.000093	0.0
-0.000032	-0.000093	0.0
-0.000032	-0.000093	0.0
-0.000032	-0.000093	0.0
-0.000032	-0.000093	0.0
-0.000032	-0.000093	0.0
-0.000032	-0.000093	0.0
-0.000032	-0.000093	0.0
-0.000032	-0.000093	0.0
-0.000032	-0.000093	0.0
-0.000032	-0.000093	0.0
-0.000032	-0.000093	0.0
-0.000032	-0.000093	0.0
-0.000032	-0.000093	0.0
-0.000032	-0.000093	0.0
-0.000032	-0.000094	0.0
-0.000032	-0.000093	0.0
-0.000032	-0.000093	0.0
-0.000032	-0.000093	0.0
-0.000032	-0.000093	0.0
-0.000032	-0.000093	0.0
-0.000032	-0.000093	0.0
-0.000032	-0.000093	0.0
-0.000032	-0.000093	0.0
-0.000032	-0.000093	0.0
-0.000032	-0.000093	0.0
-0.000032	-0.000093	0.0
-0.000032	-0.000093	0.0
-0.000032	-0.000093	0.0
-0.000032	-0.000093	0.0
-0.000032	-0.000093	0.0
-0.000031	-0.000093	0.0
-0.000031	-0.000092	0.0
-0.000030	-0.000091	0.0
-0.000028	-0.000089	0.0
-0.000025	-0.000086	0.0
-0.000019	-0.000081	0.0
-0.000009	-0.000072	0.0
0.000007	-0.000056	0.0
0.000035	-0.000030	0.0
0.000081	0.000013	0.0
0.000156	0.000081	0.0
0.000274	0.000189	0.0
0.000458	0.000357	0.0
0.000741	0.000612	0.0
0.001165	0.000993	0.0
0.001790	0.001551	0.0
0.002695	0.002353	0.0
0.003979	0.003483	0.0
0.005765	0.005046	0.0
0.008202	0.007166	0.0
0.011464	0.009987	0.0
0.015746	0.013670	0.0
0.021265	0.018396	0.0
0.028255	0.024356	0.0
0.036958	0.031754	0.0
0.047632	0.040813	0.0
0.060539	0.051768	0.0
0.075953	0.064890	0.0
0.094164	0.080507	0.0
0.115481	0.099050	0.0
0.140232	0.121121	0.0
0.168749	0.147479	0.0
0.201291	0.178614	0.0
0.237909	0.213017	0.0
0.278734	0.242986	0.0
0.329333	0.249706	0.0
0.010526	0.022950	0.0
0.033961	0.080758	0.0
0.120411	0.390155	0.0
0.327847	1.668099	0.0
0.389533	1.343267	0.0
0.208834	0.433333	0.0
0.065615	0.097551	0.0
0.015482	0.018239	0.0
0.003078	0.003040	0.0
0.000543	0.000452	0.0
0.000083	0.000043	0.0
0.000005	-0.000019	0.0
-0.000007	-0.000028	0.0
-0.000010	-0.000029	0.0
-0.000010	-0.000030	0.0
-0.000010	-0.000030	0.0
-0.000010	-0.000030	0.0
-0.000010	-0.000030	0.0
-0.000010	-0.000030	0.0
-0.000010	-0.000030	0.0
-0.000010	-0.000030	0.0
-0.000010	-0.000030	0.0
-0.000010	-0.000030	0.0
-0.000010	-0.000030	0.0
-0.000010	-0.000030	0.0
-0.000010	-0.000030	0.0
-0.000010	-0.000030	0.0
-0.000010	-0.000030	0.0
-0.000010	-0.000030	0.0
-0.000010	-0.000030	0.0
-0.000010	-0.000030	0.0
-0.000010	-0.000030	0.0
-0.000010	-0.000030	0.0
-0.000010	-0.000030	0.0
-0.000010	-0.000030	0.0
-0.000010	-0.000030	0.0
-0.000010	-0.000030	0.0
-0.000010	-0.000030	0.0
-0.000010	-0.000030	0.0
-0.000010	-0.000030	0.0
-0.000010	-0.000030	0.0
-0.000010	-0.000030	0.0
-0.000010	-0.000030	0.0
-0.000010	-0.000030	0.0
-0.000010	-0.000030	0.0
-0.000010	-0.000030	0.0
-0.000010	-0.000030	0.0
-0.000010	-0.000030	0.0
-0.000010	-0.000030	0.0
-0.000010	-0.000030	0.0
-0.000010	-0.000030	0.0
-0.000010	-0.000030	0.0
-0.000010	-0.000030	0.0
-0.000010	-0.000030	0.0
-0.000010	-0.000030	0.0
-0.000010	-0.000030	0.0
-0.000010	-0.000030	0.0
-0.000010	-0.000030	0.0
-0.000010	-0.000030	0.0
-0.000010	-0.000030	0.0
-0.000010	-0.000030	0.0
-0.000010	-0.000029	0.0
-0.000009	-0.000029	0.0
-0.000009	-0.000028	0.0
-0.000008	-0.000028	0.0
-0.000006	-0.000026	0.0
-0.000003	-0.000023	0.0
0.000004	-0.000017	0.0
0.000014	-0.000007	0.0
0.000032	0.000010	0.0
0.000061	0.000038	0.0
0.000110	0.000084	0.0
0.000189	0.000156	0.0
0.000314	0.000272	0.0
0.000509	0.000451	0.0
0.000807	0.000722	0.0
0.001255	0.001127	0.0
0.001914	0.001720	0.0
0.002867	0.002570	0.0
0.004216	0.003768	0.0
0.006091	0.005420	0.0
0.008645	0.007657	0.0
0.012056	0.010628	0.0
0.016526	0.014499	0.0
0.022276	0.019454	0.0
0.029540	0.025686	0.0
0.038567	0.033404	0.0
0.049610	0.042826	0.0
0.062933	0.054188	0.0
0.078806	0.067758	0.0
0.097517	0.083859	0.0
0.119373	0.102922	0.0
0.144705	0.125563	0.0
0.173861	0.152597	0.0
0.207135	0.184665	0.0
0.244586	0.220533	0.0
0.286100	0.252644	0.0
0.336013	0.261049	0.0
0.002810	0.007014	0.0
0.007265	0.020307	0.0
0.018431	0.065773	0.0
0.037967	0.178595	0.0
0.041754	0.142395	0.0
0.023466	0.052796	0.0
0.008235	0.013739	0.0
0.002187	0.002927	0.0
0.000486	0.000546	0.0
0.000094	0.000088	0.0
0.000015	0.000007	0.0
0.000000	-0.000006	0.0
-0.000003	-0.000009	0.0
-0.000003	-0.000009	0.0
-0.000003	-0.000009	0.0
-0.000003	-0.000009	0.0
-0.000003	-0.000009	0.0
-0.000003	-0.000009	0.0
-0.000003	-0.000009	0.0
-0.000003	-0.000009	0.0
-0.000003	-0.000009	0.0
-0.000003	-0.000009	0.0
-0.000003	-0.000009	0.0
-0.000003	-0.000009	0.0
-0.000003	-0.000009	0.0
-0.000003	-0.000009	0.0
-0.000003	-0.000009	0.0
-0.000003	-0.000009	0.0
-0.000003	-0.000009	0.0
-0.000003	-0.000009	0.0
-0.000003	-0.000009	0.0
-0.000003	-0.000009	0.0
-0.000003	-0.000009	0.0
-0.000003	-0.000009	0.0
-0.000003	-0.000009	0.0
-0.000003	-0.000009	0.0
-0.000003	-0.000009	0.0
-0.000003	-0.000009	0.0
-0.000003	-0.000009	0.0
-0.000003	-0.000009	0.0
-0.000003	-0.000009	0.0
-0.000003	-0.000009	0.0
-0.000003	-0.000009	0.0
-0.000003	-0.000009	0.0
-0.000003	-0.000009	0.0
-0.000003	-0.000009	0.0
-0.000003	-0.000009	0.0
-0.000003	-0.000009	0.0
-0.000003	-0.000009	0.0
-0.000003	-0.000009	0.0
-0.000003	-0.000009	0.0
-0.000003	-0.000009	0.0
-0.000003	-0.000009	0.0
-0.000003	-0.000009	0.0
-0.000003	-0.000009	0.0
-0.000003	-0.000009	0.0
-0.000003	-0.000009	0.0
-0.000003	-0.000009	0.0
-0.000003	-0.000009	0.0
-0.000003	-0.000009	0.0
-0.000003	-0.000009	0.0
-0.000003	-0.000009	0.0
-0.000002	-0.000008	0.0
-0.000002	-0.000008	0.0
-0.000001	-0.000007	0.0
0.000001	-0.000005	0.0
0.000005	-0.000001	0.0
0.000011	0.000005	0.0
0.000022	0.000015	0.0
0.000041	0.000033	0.0
0.000072	0.000062	0.0
0.000123	0.000110	0.0
0.000205	0.000187	0.0
0.000335	0.000308	0.0
0.000539	0.000496	0.0
0.000850	0.000781	0.0
0.001316	0.001205	0.0
0.002002	0.001826	0.0
0.002992	0.002714	0.0
0.004393	0.003965	0.0
0.006337	0.005687	0.0
0.008980	0.008016	0.0
0.012506	0.011102	0.0
0.017119	0.015117	0.0
0.023042	0.020245	0.0
0.030513	0.026682	0.0
0.039778	0.034636	0.0
0.051093	0.044325	0.0
0.064717	0.055982	0.0
0.080919	0.069871	0.0
0.099983	0.086310	0.0
0.122212	0.105731	0.0
0.147941	0.128754	0.0
0.177528	0.156231	0.0
0.211292	0.188914	0.0
0.249318	0.225788	0.0
0.291348	0.259471	0.0
0.340823	0.269268	0.0
0.000614	0.001646	0.0
0.001348	0.003970	0.0
0.002701	0.009624	0.0
0.004499	0.019341	0.0
0.004597	0.015331	0.0
0.002673	0.006328	0.0
0.001023	0.001854	0.0
0.000300	0.000442	0.0
0.000073	0.000091	0.0
0.000015	0.000015	0.0
0.000002	0.000001	0.0
-0.000000	-0.000002	0.0
-0.000001	-0.000003	0.0
-0.000001	-0.000002	0.0
-0.000001	-0.000003	0.0
-0.000001	-0.000003	0.0
-0.000001	-0.000003	0.0
-0.000001	-0.000002	0.0
-0.000001	-0.000003	0.0
-0.000001	-0.000003	0.0
-0.000001	-0.000002	0.0
-0.000001	-0.000003	0.0
-0.000001	-0.000003	0.0
-0.000001	-0.000003	0.0
-0.000001	-0.000003	0.0
-0.000001	-0.000002	0.0
-0.000001	-0.000002	0.0
-0.000001	-0.000003	0.0
-0.000001	-0.000003	0.0
-0.000001	-0.000003	0.0
-0.000001	-0.000003	0.0
-0.000001	-0.000003	0.0
-0.000001	-0.000003	0.0
-0.000001	-0.000003	0.0
-0.000001	-0.000003	0.0
-0.000001	-0.000003	0.0
-0.000001	-0.000003	0.0
-0.000001	-0.000003	0.0
-0.000001	-0.000002	0.0
-0.000001	-0.000003	0.0
-0.000001	-0.000002	0.0
-0.000001	-0.000003	0.0
-0.000001	-0.000002	0.0
-0.000001	-0.000003	0.0
-0.000001	-0.000003	0.0
-0.000001	-0.000003	0.0
-0.000001	-0.000003	0.0
-0.000001	-0.000003	0.0
-0.000001	-0.000003	0.0
-0.000001	-0.000003	0.0
-0.000001	-0.000002	0.0
-0.000001	-0.000003	0.0
-0.000001	-0.000003	0.0
-0.000001	-0.000003	0.0
-0.000001	-0.000003	0.0
-0.000001	-0.000003	0.0
-0.000001	-0.000003	0.0
-0.000001	-0.000003	0.0
-0.000001	-0.000003	0.0
-0.000001	-0.000002	0.0
-0.000001	-0.000002	0.0
-0.000001	-0.000002	0.0
-0.000000	-0.000002	0.0
0.000001	-0.000001	0.0
0.000002	-0.000000	0.0
0.000004	0.000002	0.0
0.000007	0.000006	0.0
0.000014	0.000012	0.0
0.000025	0.000023	0.0
0.000044	0.000041	0.0
0.000076	0.000071	0.0
0.000129	0.000121	0.0
0.000214	0.000201	0.0
0.000349	0.000327	0.0
0.000559	0.000522	0.0
0.000879	0.000817	0.0
0.001360	0.001256	0.0
0.002067	0.001898	0.0
0.003086	0.002817	0.0
0.004526	0.004108	0.0
0.006522	0.005885	0.0
0.009234	0.008283	0.0
0.012846	0.011457	0.0
0.017566	0.015580	0.0
0.023617	0.020836	0.0
0.031239	0.027425	0.0
0.040679	0.035552	0.0
0.052189	0.045433	0.0
0.066029	0.057301	0.0
0.082463	0.071413	0.0
0.101772	0.088087	0.0
0.124259	0.107749	0.0
0.150255	0.131023	0.0
0.180125	0.158785	0.0
0.214210	0.191862	0.0
0.252617	0.229403	0.0
0.295006	0.264183	0.0
0.344191	0.275034	0.0
0.000120	0.000336	0.0
0.000233	0.000698	0.0
0.000391	0.001351	0.0
0.000549	0.002161	0.0
0.000523	0.001690	0.0
0.000310	0.000757	0.0
0.000127	0.000244	0.0
0.000040	0.000064	0.0
0.000011	0.000014	0.0
0.000002	0.000002	0.0
0.000000	-0.000000	0.0
-0.000000	-0.000001	0.0
-0.000000	-0.000001	0.0
-0.000001	-0.000001	0.0
-0.000001	-0.000001	0.0
-0.000000	-0.000001	0.0
-0.000000	-0.000001	0.0
-0.000000	-0.000001	0.0
-0.000000	-0.000001	0.0
-0.000000	-0.000001	0.0
-0.000000	-0.000001	0.0
-0.000000	-0.000001	0.0
-0.000000	-0.000001	0.0
-0.000000	-0.000001	0.0
-0.000000	-0.000001	0.0
-0.000000	-0.000001	0.0
-0.000000	-0.000001	0.0
-0.000000	-0.000001	0.0
-0.000000	-0.000001	0.0
-0.000001	-0.000001	0.0
-0.000001	-0.000001	0.0
-0.000000	-0.000001	0.0
-0.000000	-0.000001	0.0
-0.000000	-0.000001	0.0
-0.000001	-0.000001	0.0
-0.000001	-0.000001	0.0
-0.000000	-0.000001	0.0
-0.000000	-0.000001	0.0
-0.000000	-0.000001	0.0
-0.000000	-0.000001	0.0
-0.000000	-0.000001	0.0
-0.000000	-0.000001	0.0
-0.000000	-0.000001	0.0
-0.000000	-0.000001	0.0
-0.000001	-0.000001	0.0
-0.000001	-0.000001	0.0
-0.000001	-0.000001	0.0
-0.000001	-0.000001	0.0
-0.000000	-0.000001	0.0
-0.000000	-0.000001	0.0
-0.000000	-0.000001	0.0
-0.000000	-0.000001	0.0
-0.000001	-0.000001	0.0
-0.000001	-0.000001	0.0
-0.000000	-0.000001	0.0
-0.000001	-0.000001	0.0
-0.000001	-0.000001	0.0
-0.000001	-0.000001	0.0
-0.000001	-0.000001	0.0
-0.000001	-0.000001	0.0
-0.000000	-0.000001	0.0
0.000000	-0.000001	0.0
0.000000	-0.000000	0.0
0.000001	0.000001	0.0
0.000002	0.000002	0.0
0.000004	0.000004	0.0
0.000008	0.000008	0.0
0.000015	0.000014	0.0
0.000026	0.000025	0.0
0.000046	0.000044	0.0
0.000079	0.000075	0.0
0.000133	0.000127	0.0
0.000220	0.000209	0.0
0.000358	0.000338	0.0
0.000573	0.000538	0.0
0.000902	0.000842	0.0
0.001393	0.001293	0.0
0.002115	0.001951	0.0
0.003156	0.002894	0.0
0.004626	0.004215	0.0
0.006661	0.006032	0.0
0.009424	0.008483	0.0
0.013100	0.011722	0.0
0.017897	0.015924	0.0
0.024043	0.021275	0.0
0.031775	0.027974	0.0
0.041339	0.036225	0.0
0.052989	0.046243	0.0
0.066980	0.058258	0.0
0.083576	0.072526	0.0
0.103054	0.089360	0.0
0.125715	0.109183	0.0
0.151889	0.132621	0.0
0.181945	0.160565	0.0
0.216236	0.193892	0.0
0.254888	0.231862	0.0
0.297515	0.267379	0.0
0.346501	0.278982	0.0
0.000022	0.000063	0.0
0.000039	0.000116	0.0
0.000057	0.000187	0.0
0.000069	0.000250	0.0
0.000061	0.000192	0.0
0.000037	0.000091	0.0
0.000016	0.000032	0.0
0.000005	0.000009	0.0
0.000001	0.000002	0.0
0.000000	0.000000	0.0
0.000000	-0.000000	0.0
-0.000000	-0.000000	0.0
-0.000000	-0.000000	0.0
-0.000000	-0.000001	0.0
-0.000000	-0.000000	0.0
-0.000000	-0.000000	0.0
-0.000000	-0.000000	0.0
-0.000000	-0.000000	0.0
-0.000000	-0.000000	0.0
-0.000000	-0.000000	0.0
-0.000000	-0.000000	0.0
-0.000000	-0.000000	0.0
-0.000000	-0.000000	0.0
-0.000000	-0.000000	0.0