# vtk DataFile Version 3.0
Header
ASCII
DATASET RECTILINEAR_GRID
DIMENSIONS 98 98 1
X_COORDINATES 98 double
0.030000 0.050000 0.070000 0.090000 0.110000 0.130000 0.150000 0.170000 0.190000 0.210000 0.230000 0.250000 0.270000 0.290000 0.310000 0.330000 0.350000 0.370000 0.390000 0.410000 0.430000 0.450000 0.470000 0.490000 0.510000 0.530000 0.550000 0.570000 0.590000 0.610000 0.630000 0.650000 0.670000 0.690000 0.710000 0.730000 0.750000 0.770000 0.790000 0.810000 0.830000 0.850000 0.870000 0.890000 0.910000 0.930000 0.950000 0.970000 0.990000 1.010000 1.030000 1.050000 1.070000 1.090000 1.110000 1.130000 1.150000 1.170000 1.190000 1.210000 1.230000 1.250000 1.270000 1.290000 1.310000 1.330000 1.350000 1.370000 1.390000 1.410000 1.430000 1.450000 1.470000 1.490000 1.510000 1.530000 1.550000 1.570000 1.590000 1.610000 1.630000 1.650000 1.670000 1.690000 1.710000 1.730000 1.750000 1.770000 1.790000 1.810000 1.830000 1.850000 1.870000 1.890000 1.910000 1.930000 1.950000 1.970000 
Y_COORDINATES 98 double
0.030000 0.050000 0.070000 0.090000 0.110000 0.130000 0.150000 0.170000 0.190000 0.210000 0.230000 0.250000 0.270000 0.290000 0.310000 0.330000 0.350000 0.370000 0.390000 0.410000 0.430000 0.450000 0.470000 0.490000 0.510000 0.530000 0.550000 0.570000 0.590000 0.610000 0.630000 0.650000 0.670000 0.690000 0.710000 0.730000 0.750000 0.770000 0.790000 0.810000 0.830000 0.850000 0.870000 0.890000 0.910000 0.930000 0.950000 0.970000 0.990000 1.010000 1.030000 1.050000 1.070000 1.090000 1.110000 1.130000 1.150000 1.170000 1.190000 1.210000 1.230000 1.250000 1.270000 1.290000 1.310000 1.330000 1.350000 1.370000 1.390000 1.410000 1.430000 1.450000 1.470000 1.490000 1.510000 1.530000 1.550000 1.570000 1.590000 1.610000 1.630000 1.650000 1.670000 1.690000 1.710000 1.730000 1.750000 1.770000 1.790000 1.810000 1.830000 1.850000 1.870000 1.890000 1.910000 1.930000 1.950000 1.970000 
Z_COORDINATES 1 double
0.0
POINT_DATA 9604
VECTORS velocity double
-0.000001	-0.000001	0.0
-0.000001	-0.000001	0.0
-0.000000	-0.000000	0.0
-0.000000	0.000000	0.0
-0.000000	0.000000	0.0
0.000000	0.000000	0.0
0.000000	0.000000	0.0
0.000000	0.000000	0.0
0.000000	0.000000	0.0
0.000000	0.000000	0.0
0.000000	0.000000	0.0
0.000000	0.000000	0.0
0.000000	0.000000	0.0
0.000000	0.000000	0.0
0.000000	0.000000	0.0
0.000000	0.000000	0.0
0.000000	0.000000	0.0
0.000000	0.000000	0.0
0.000000	0.000000	0.0
0.000000	0.000000	0.0
0.000000	0.000000	0.0
0.000000	0.000000	0.0
0.000000	0.000000	0.0
0.000000	0.000000	0.0
0.000000	0.000000	0.0
0.000000	0.000000	0.0
0.000000	0.000000	0.0
0.000000	0.000000	0.0
0.000000	0.000000	0.0
0.000000	0.000000	0.0
0.000000	0.000000	0.0
0.000000	0.000000	0.0
0.000000	0.000000	0.0
0.000000	0.000000	0.0
0.000000	0.000000	0.0
0.000000	0.000000	0.0
0.000000	0.000000	0.0
0.000000	0.000000	0.0
0.000000	0.000000	0.0
0.000000	0.000000	0.0
0.000000	0.000000	0.0
0.000001	0.000000	0.0
0.000001	0.000000	0.0
0.000001	0.000000	0.0
0.000001	0.000000	0.0
0.000002	0.000000	0.0
0.000002	0.000000	0.0
0.000003	0.000000	0.0
0.000004	0.000000	0.0
0.000005	0.000000	0.0
0.000006	0.000000	0.0
0.000008	0.000000	0.0
0.000010	0.000000	0.0
0.000012	0.000000	0.0
0.000016	0.000000	0.0
0.000020	0.000000	0.0
0.000025	0.000000	0.0
0.000031	0.000000	0.0
0.000038	0.000000	0.0
0.000047	0.000000	0.0
0.000057	0.000000	0.0
0.000070	0.000000	0.0
0.000086	0.000000	0.0
0.000104	0.000000	0.0
0.000126	0.000000	0.0
0.000151	0.000000	0.0
0.000182	0.000000	0.0
0.000217	0.000000	0.0
0.000259	-0.000000	0.0
0.000308	-0.000000	0.0
0.000364	-0.000000	0.0
0.000430	-0.000000	0.0
0.000506	-0.000000	0.0
0.000595	-0.000000	0.0
0.000697	-0.000000	0.0
0.000814	-0.000000	0.0
0.000951	-0.000001	0.0
0.001108	-0.000001	0.0
0.001291	-0.000001	0.0
0.001503	-0.000001	0.0
0.001750	-0.000001	0.0
0.002039	-0.000001	0.0
0.002379	-0.000001	0.0
0.002783	-0.000001	0.0
0.003265	-0.000001	0.0
0.003847	-0.000001	0.0
0.004559	-0.000000	0.0
0.005443	-0.000000	0.0
0.006559	0.000000	0.0
0.007999	0.000000	0.0
0.009905	0.000000	0.0
0.012510	0.000000	0.0
0.016209	0.000000	0.0
0.021727	-0.000000	0.0
0.030498	-0.000001	0.0
0.045643	-0.000002	0.0
0.074880	-0.000002	0.0
0.141589	-0.000003	0.0
-0.000001	-0.000001	0.0
-0.000001	-0.000001	0.0
-0.000000	-0.000000	0.0
-0.000000	-0.000000	0.0
-0.000000	0.000000	0.0
0.000000	0.000000	0.0
0.000000	0.000000	0.0
0.000000	0.000000	0.0
0.000000	0.000000	0.0
0.000000	0.000000	0.0
0.000000	0.000000	0.0
0.000000	0.000000	0.0
0.000000	0.000000	0.0
0.000000	0.000000	0.0
0.000000	0.000000	0.0
0.000000	0.000000	0.0
0.000000	0.000000	0.0
0.000000	0.000000	0.0
0.000000	0.000000	0.0
0.000000	0.000000	0.0
0.000000	0.000000	0.0
0.000000	0.000000	0.0
0.000000	0.000000	0.0
0.000000	0.000000	0.0
0.000000	0.000000	0.0
0.000000	0.000000	0.0
0.000000	0.000000	0.0
0.000000	0.000000	0.0
0.000000	0.000000	0.0
0.000000	0.000000	0.0
0.000000	0.000000	0.0
0.000000	0.000000	0.0
0.000000	0.000000	0.0
0.000000	0.000000	0.0
0.000000	0.000000	0.0
0.000000	0.000000	0.0
0.000000	0.000000	0.0
0.000000	0.000000	0.0
0.000000	0.000000	0.0
0.000001	0.000000	0.0
0.000001	0.000000	0.0
0.000001	0.000000	0.0
0.000001	0.000000	0.0
0.000002	0.000000	0.0
0.000002	0.000000	0.0
0.000003	0.000000	0.0
0.000004	0.000000	0.0
0.000005	0.000000	0.0
0.000006	0.000000	0.0
0.000008	0.000000	0.0
0.000010	0.000000	0.0
0.000013	0.000000	0.0
0.000016	0.000000	0.0
0.000021	0.000000	0.0
0.000026	0.000000	0.0
0.000033	0.000000	0.0
0.000041	0.000000	0.0
0.000051	0.000000	0.0
0.000063	0.000000	0.0
0.000077	0.000000	0.0
0.000095	0.000000	0.0
0.000117	0.000000	0.0
0.000142	-0.000000	0.0
0.000172	-0.000000	0.0
0.000208	-0.000000	0.0
0.000251	-0.000000	0.0
0.000301	-0.000000	0.0
0.000360	-0.000000	0.0
0.000429	-0.000000	0.0
0.000510	-0.000000	0.0
0.000603	-0.000000	0.0
0.000712	-0.000001	0.0
0.000838	-0.000001	0.0
0.000983	-0.000001	0.0
0.001152	-0.000001	0.0
0.001346	-0.000001	0.0
0.001570	-0.000001	0.0
0.001829	-0.000001	0.0
0.002129	-0.000001	0.0
0.002477	-0.000001	0.0
0.002882	-0.000002	0.0
0.003355	-0.000002	0.0
0.003910	-0.000002	0.0
0.004567	-0.000002	0.0
0.005349	-0.000001	0.0
0.006290	-0.000001	0.0
0.007436	-0.000001	0.0
0.008849	-0.000001	0.0
0.010622	-0.000000	0.0
0.012888	0.000000	0.0
0.015850	0.000000	0.0
0.019831	0.000000	0.0
0.025355	0.000000	0.0
0.033326	-0.000000	0.0
0.045398	-0.000001	0.0
0.064817	-0.000003	0.0
0.098737	-0.000004	0.0
0.166774	-0.000004	0.0
-0.000000	-0.000000	0.0
-0.000000	-0.000000	0.0
-0.000000	-0.000000	0.0
-0.000000	-0.000000	0.0
0.000000	0.000000	0.0
0.000000	0.000000	0.0
0.000000	0.000000	0.0
0.000000	0.000000	0.0
0.000000	0.000000	0.0
0.000000	0.000000	0.0
0.000000	0.000000	0.0
0.000000	0.000000	0.0
0.000000	0.000000	0.0
0.000000	0.000000	0.0
0.000000	0.000000	0.0
0.000000	0.000000	0.0
0.000000	0.000000	0.0
0.000000	0.000000	0.0
0.000000	0.000000	0.0
0.000000	0.000000	0.0
0.000000	0.000000	0.0
0.000000	0.000000	0.0
0.000000	0.000000	0.0
0.000000	0.000000	0.0
0.000000	0.000000	0.0
0.000000	0.000000	0.0
0.000000	0.000000	0.0
0.000000	0.000000	0.0
0.000000	0.000000	0.0
0.000000	0.000000	0.0
0.000000	0.000000	0.0
0.000000	0.000000	0.0
0.000000	0.000000	0.0
0.000000	0.000000	0.0
0.000000	0.000000	0.0
0.000000	0.000000	0.0
0.000000	0.000000	0.0
0.000000	0.000000	0.0
0.000001	0.000000	0.0
0.000001	0.000000	0.0
0.000001	0.000000	0.0
0.000001	0.000000	0.0
0.000002	0.000000	0.0
0.000002	0.000000	0.0
0.000003	0.000000	0.0
0.000004	0.000000	0.0
0.000005	0.000000	0.0
0.000006	0.000000	0.0
0.000008	0.000000	0.0
0.000011	0.000000	0.0
0.000014	0.000000	0.0
0.000018	0.000000	0.0
0.000023	0.000000	0.0
0.000029	0.000000	0.0
0.000036	0.000000	0.0
0.000045	0.000000	0.0
0.000057	0.000000	0.0
0.000070	-0.000000	0.0
0.000087	-0.000000	0.0
0.000108	-0.000000	0.0
0.000132	-0.000000	0.0
0.000162	-0.000000	0.0
0.000197	-0.000000	0.0
0.000239	-0.000000	0.0
0.000289	-0.000000	0.0
0.000348	-0.000000	0.0
0.000418	-0.000000	0.0
0.000500	-0.000000	0.0
0.000595	-0.000001	0.0
0.000706	-0.000001	0.0
0.000836	-0.000001	0.0
0.000986	-0.000001	0.0
0.001160	-0.000001	0.0
0.001361	-0.000001	0.0
0.001593	-0.000001	0.0
0.001860	-0.000002	0.0
0.002169	-0.000002	0.0
0.002525	-0.000002	0.0
0.002936	-0.000002	0.0
0.003413	-0.000002	0.0
0.003965	-0.000002	0.0
0.004610	-0.000002	0.0
0.005364	-0.000002	0.0
0.006252	-0.000002	0.0
0.007307	-0.000002	0.0
0.008569	-0.000002	0.0
0.010096	-0.000001	0.0
0.011967	-0.000001	0.0
0.014291	-0.000001	0.0
0.017229	-0.000000	0.0
0.021015	0.000000	0.0
0.026009	0.000000	0.0
0.032778	0.000000	0.0
0.042251	-0.000001	0.0
0.056045	-0.000002	0.0
0.077184	-0.000003	0.0
0.112094	-0.000004	0.0
0.178367	-0.000005	0.0
-0.000000	-0.000000	0.0
-0.000000	-0.000000	0.0
-0.000000	-0.000000	0.0
-0.000000	-0.000000	0.0
0.000000	0.000000	0.0
0.000000	0.000000	0.0
0.000000	0.000000	0.0
0.000000	0.000000	0.0
0.000000	0.000000	0.0
0.000000	0.000000	0.0
0.000000	0.000000	0.0
-0.000000	-0.000000	0.0
-0.000000	-0.000000	0.0
-0.000000	-0.000000	0.0
-0.000000	-0.000000	0.0
-0.000000	-0.000000	0.0
-0.000000	-0.000000	0.0
-0.000000	-0.000000	0.0
-0.000000	-0.000000	0.0
-0.000000	-0.000000	0.0
-0.000000	0.000000	0.0
-0.000000	0.000000	0.0
0.000000	0.000000	0.0
0.000000	0.000000	0.0
0.000000	0.000000	0.0
0.000000	0.000000	0.0
0.000000	0.000000	0.0
0.000000	0.000000	0.0
0.000000	0.000000	0.0
0.000000	0.000000	0.0
0.000000	0.000000	0.0
0.000000	0.000000	0.0
0.000000	0.000000	0.0
0.000000	0.000000	0.0
0.000000	0.000000	0.0
0.000000	0.000000	0.0
0.000000	0.000000	0.0
0.000000	0.000000	0.0
0.000001	0.000000	0.0
0.000001	0.000000	0.0
0.000001	0.000000	0.0
0.000002	0.000000	0.0
0.000002	0.000000	0.0
0.000003	0.000000	0.0
0.000004	0.000000	0.0
0.000005	0.000000	0.0
0.000006	0.000000	0.0
0.000008	0.000000	0.0
0.000011	-0.000000	0.0
0.000014	-0.000000	0.0
0.000018	-0.000000	0.0
0.000023	-0.000000	0.0
0.000029	-0.000000	0.0
0.000036	-0.000000	0.0
0.000046	-0.000000	0.0
0.000058	-0.000000	0.0
0.000072	-0.000000	0.0
0.000090	-0.000000	0.0
0.000111	-0.000000	0.0
0.000137	-0.000000	0.0
0.000168	-0.000000	0.0
0.000206	-0.000000	0.0
0.000251	-0.000000	0.0
0.000305	-0.000000	0.0
0.000368	-0.000000	0.0
0.000443	-0.000001	0.0
0.000531	-0.000001	0.0
0.000635	-0.000001	0.0
0.000756	-0.000001	0.0
0.000897	-0.000001	0.0
0.001061	-0.000001	0.0
0.001251	-0.000001	0.0
0.001470	-0.000001	0.0
0.001724	-0.000002	0.0
0.002016	-0.000002	0.0
0.002353	-0.000002	0.0
0.002741	-0.000002	0.0
0.003188	-0.000002	0.0
0.003703	-0.000003	0.0
0.004298	-0.000003	0.0
0.004987	-0.000003	0.0
0.005787	-0.000003	0.0
0.006721	-0.000003	0.0
0.007816	-0.000003	0.0
0.009110	-0.000003	0.0
0.010650	-0.000002	0.0
0.012501	-0.000002	0.0
0.014750	-0.000001	0.0
0.017517	-0.000001	0.0
0.020973	-0.000000	0.0
0.025365	0.000000	0.0
0.031059	0.000000	0.0
0.038615	-0.000000	0.0
0.048933	-0.000001	0.0
0.063530	-0.000002	0.0
0.085211	-0.000004	0.0
0.119949	-0.000005	0.0
0.184431	-0.000006	0.0
-0.000000	-0.000000	0.0
-0.000000	-0.000000	0.0
-0.000000	-0.000000	0.0
0.000000	0.000000	0.0
0.000000	0.000000	0.0
0.000000	0.000000	0.0
0.000000	0.000000	0.0
0.000000	0.000000	0.0
0.000000	-0.000000	0.0
0.000000	-0.000000	0.0
-0.000000	-0.000000	0.0
-0.000000	-0.000000	0.0
-0.000000	-0.000000	0.0
-0.000000	-0.000000	0.0
-0.000000	-0.000000	0.0
-0.000000	-0.000000	0.0
-0.000000	-0.000000	0.0
-0.000000	-0.000000	0.0
-0.000000	-0.000000	0.0
-0.000000	-0.000000	0.0
-0.000000	-0.000000	0.0
-0.000000	-0.000000	0.0
-0.000000	-0.000000	0.0
-0.000000	-0.000000	0.0
-0.000000	-0.000000	0.0
-0.000000	-0.000000	0.0
0.000000	-0.000000	0.0
0.000000	-0.000000	0.0
0.000000	-0.000000	0.0
0.000000	-0.000000	0.0
0.000000	-0.000000	0.0
0.000000	-0.000000	0.0
0.000000	-0.000000	0.0
0.000000	-0.000000	0.0
0.000000	-0.000000	0.0
0.000000	-0.000000	0.0
0.000000	-0.000000	0.0
0.000001	-0.000000	0.0
0.000001	-0.000000	0.0
0.000001	-0.000000	0.0
0.000001	-0.000000	0.0
0.000002	-0.000000	0.0
0.000003	-0.000000	0.0
0.000003	-0.000000	0.0
0.000004	-0.000000	0.0
0.000006	-0.000000	0.0
0.000008	-0.000000	0.0
0.000010	-0.000000	0.0
0.000013	-0.000000	0.0
0.000017	-0.000000	0.0
0.000021	-0.000000	0.0
0.000027	-0.000000	0.0
0.000035	-0.000000	0.0
0.000044	-0.000000	0.0
0.000055	-0.000000	0.0
0.000070	-0.000000	0.0
0.000087	-0.000000	0.0
0.000108	-0.000000	0.0
0.000134	-0.000000	0.0
0.000166	-0.000000	0.0
0.000203	-0.000000	0.0
0.000249	-0.000000	0.0
0.000303	-0.000000	0.0
0.000367	-0.000000	0.0
0.000444	-0.000001	0.0
0.000534	-0.000001	0.0
0.000640	-0.000001	0.0
0.000765	-0.000001	0.0
0.000910	-0.000001	0.0
0.001079	-0.000001	0.0
0.001276	-0.000001	0.0
0.001503	-0.000002	0.0
0.001766	-0.000002	0.0
0.002069	-0.000002	0.0
0.002418	-0.000002	0.0
0.002820	-0.000003	0.0
0.003281	-0.000003	0.0
0.003811	-0.000003	0.0
0.004422	-0.000003	0.0
0.005125	-0.000003	0.0
0.005936	-0.000004	0.0
0.006876	-0.000004	0.0
0.007969	-0.000004	0.0
0.009245	-0.000004	0.0
0.010744	-0.000003	0.0
0.012518	-0.000003	0.0
0.014635	-0.000003	0.0
0.017186	-0.000002	0.0
0.020296	-0.000001	0.0
0.024138	-0.000001	0.0
0.028956	-0.000000	0.0
0.035109	0.000000	0.0
0.043136	-0.000000	0.0
0.053891	-0.000001	0.0
0.068807	-0.000002	0.0
0.090540	-0.000004	0.0
0.124823	-0.000005	0.0
0.187938	-0.000006	0.0
-0.000000	-0.000000	0.0
0.000000	-0.000000	0.0
0.000000	0.000000	0.0
0.000000	0.000000	0.0
0.000000	0.000000	0.0
0.000000	0.000000	0.0
0.000000	0.000000	0.0
0.000000	0.000000	0.0
0.000000	-0.000000	0.0
-0.000000	-0.000000	0.0
-0.000000	-0.000000	0.0
-0.000000	-0.000000	0.0
-0.000000	-0.000000	0.0
-0.000000	-0.000000	0.0
-0.000000	-0.000000	0.0
-0.000000	-0.000000	0.0
-0.000000	-0.000000	0.0
-0.000000	-0.000000	0.0
-0.000000	-0.000000	0.0
-0.000000	-0.000000	0.0
-0.000000	-0.000000	0.0
-0.000000	-0.000000	0.0
-0.000000	-0.000000	0.0
-0.000000	-0.000000	0.0
-0.000000	-0.000000	0.0
-0.000000	-0.000000	0.0
0.000000	-0.000000	0.0
0.000000	-0.000000	0.0
0.000000	-0.000000	0.0
0.000000	-0.000000	0.0
0.000000	-0.000000	0.0
0.000000	-0.000000	0.0
0.000000	-0.000000	0.0
0.000000	-0.000000	0.0
0.000000	-0.000000	0.0
0.000000	-0.000000	0.0
0.000000	-0.000000	0.0
0.000001	-0.000000	0.0
0.000001	-0.000000	0.0
0.000001	-0.000000	0.0
0.000002	-0.000000	0.0
0.000002	-0.000000	0.0
0.000003	-0.000000	0.0
0.000004	-0.000000	0.0
0.000005	-0.000000	0.0
0.000007	-0.000000	0.0
0.000009	-0.000000	0.0
0.000012	-0.000000	0.0
0.000015	-0.000000	0.0
0.000019	-0.000000	0.0
0.000025	-0.000000	0.0
0.000032	-0.000000	0.0
0.000040	-0.000000	0.0
0.000051	-0.000000	0.0
0.000065	-0.000000	0.0
0.000081	-0.000000	0.0
0.000101	-0.000000	0.0
0.000126	-0.000000	0.0
0.000156	-0.000000	0.0
0.000193	-0.000000	0.0
0.000237	-0.000000	0.0
0.000290	-0.000000	0.0
0.000353	-0.000000	0.0
0.000428	-0.000001	0.0
0.000517	-0.000001	0.0
0.000621	-0.000001	0.0
0.000745	-0.000001	0.0
0.000889	-0.000001	0.0
0.001057	-0.000001	0.0
0.001253	-0.000001	0.0
0.001480	-0.000002	0.0
0.001743	-0.000002	0.0
0.002046	-0.000002	0.0
0.002395	-0.000002	0.0
0.002796	-0.000003	0.0
0.003257	-0.000003	0.0
0.003786	-0.000003	0.0
0.004392	-0.000003	0.0
0.005088	-0.000004	0.0
0.005888	-0.000004	0.0
0.006809	-0.000004	0.0
0.007871	-0.000004	0.0
0.009101	-0.000004	0.0
0.010532	-0.000004	0.0
0.012203	-0.000004	0.0
0.014170	-0.000004	0.0
0.016501	-0.000003	0.0
0.019288	-0.000002	0.0
0.022656	-0.000002	0.0
0.026775	-0.000001	0.0
0.031883	-0.000000	0.0
0.038325	0.000000	0.0
0.046618	-0.000000	0.0
0.057577	-0.000001	0.0
0.072574	-0.000002	0.0
0.094178	-0.000004	0.0
0.127997	-0.000005	0.0
0.190126	-0.000006	0.0
0.000000	0.000000	0.0
0.000000	0.000000	0.0
0.000000	0.000000	0.0
0.000000	0.000000	0.0
0.000000	0.000000	0.0
0.000000	0.000000	0.0
0.000000	0.000000	0.0
0.000000	0.000000	0.0
0.000000	-0.000000	0.0
-0.000000	-0.000000	0.0
-0.000000	-0.000000	0.0
-0.000000	-0.000000	0.0
-0.000000	-0.000000	0.0
-0.000000	-0.000000	0.0
-0.000000	-0.000000	0.0
-0.000000	-0.000000	0.0
-0.000000	-0.000000	0.0
-0.000000	-0.000000	0.0
-0.000000	-0.000000	0.0
-0.000000	-0.000000	0.0
-0.000000	-0.000000	0.0
-0.000000	-0.000000	0.0
-0.000000	-0.000000	0.0
0.000000	-0.000000	0.0
0.000000	-0.000000	0.0
0.000000	-0.000000	0.0
0.000000	0.000000	0.0
0.000000	0.000000	0.0
0.000000	0.000000	0.0
0.000000	0.000000	0.0
0.000000	0.000000	0.0
0.000000	0.000000	0.0
0.000000	0.000000	0.0
0.000000	0.000000	0.0
0.000000	0.000000	0.0
0.000000	0.000000	0.0
0.000001	0.000000	0.0
0.000001	0.000000	0.0
0.000001	0.000000	0.0
0.000001	0.000000	0.0
0.000002	0.000000	0.0
0.000003	0.000000	0.0
0.000003	-0.000000	0.0
0.000004	-0.000000	0.0
0.000006	-0.000000	0.0
0.000008	-0.000000	0.0
0.000010	-0.000000	0.0
0.000013	-0.000000	0.0
0.000017	-0.000000	0.0
0.000022	-0.000000	0.0
0.000028	-0.000000	0.0
0.000036	-0.000000	0.0
0.000046	-0.000000	0.0
0.000058	-0.000000	0.0
0.000074	-0.000000	0.0
0.000092	-0.000000	0.0
0.000115	-0.000000	0.0
0.000143	-0.000000	0.0
0.000178	-0.000000	0.0
0.000219	-0.000000	0.0
0.000269	-0.000000	0.0
0.000329	-0.000000	0.0
0.000400	-0.000000	0.0
0.000485	-0.000001	0.0
0.000585	-0.000001	0.0
0.000704	-0.000001	0.0
0.000843	-0.000001	0.0
0.001006	-0.000001	0.0
0.001196	-0.000001	0.0
0.001417	-0.000002	0.0
0.001672	-0.000002	0.0
0.001967	-0.000002	0.0
0.002308	-0.000002	0.0
0.002699	-0.000003	0.0
0.003148	-0.000003	0.0
0.003663	-0.000003	0.0
0.004253	-0.000004	0.0
0.004928	-0.000004	0.0
0.005701	-0.000004	0.0
0.006586	-0.000005	0.0
0.007602	-0.000005	0.0
0.008770	-0.000005	0.0
0.010118	-0.000005	0.0
0.011678	-0.000005	0.0
0.013492	-0.000005	0.0
0.015614	-0.000004	0.0
0.018114	-0.000004	0.0
0.021082	-0.000003	0.0
0.024639	-0.000002	0.0
0.028952	-0.000001	0.0
0.034251	-0.000000	0.0
0.040869	-0.000000	0.0
0.049302	-0.000000	0.0
0.060336	-0.000001	0.0
0.075305	-0.000002	0.0
0.096727	-0.000004	0.0
0.130150	-0.000005	0.0
0.191569	-0.000006	0.0
0.000000	0.000000	0.0
0.000000	0.000000	0.0
0.000000	0.000000	0.0
0.000000	0.000000	0.0
0.000000	0.000000	0.0
0.000000	0.000000	0.0
0.000000	0.000000	0.0
0.000000	0.000000	0.0
0.000000	0.000000	0.0
-0.000000	-0.000000	0.0
-0.000000	-0.000000	0.0
-0.000000	-0.000000	0.0
-0.000000	-0.000000	0.0
-0.000000	-0.000000	0.0
-0.000000	-0.000000	0.0
-0.000000	0.000000	0.0
-0.000000	0.000000	0.0
-0.000000	0.000000	0.0
-0.000000	0.000000	0.0
0.000000	0.000000	0.0
0.000000	0.000000	0.0
0.000000	0.000000	0.0
0.000000	0.000000	0.0
0.000000	0.000000	0.0
0.000000	0.000000	0.0
0.000000	0.000000	0.0
0.000000	0.000000	0.0
0.000000	0.000000	0.0
0.000000	0.000000	0.0
0.000000	0.000000	0.0
0.000000	0.000000	0.0
0.000000	0.000000	0.0
0.000000	0.000000	0.0
0.000000	0.000000	0.0
0.000000	0.000000	0.0
0.000000	0.000000	0.0
0.000001	0.000000	0.0
0.000001	0.000000	0.0
0.000001	0.000000	0.0
0.000002	0.000000	0.0
0.000002	0.000000	0.0
0.000003	0.000000	0.0
0.000004	0.000000	0.0
0.000005	0.000000	0.0
0.000007	0.000000	0.0
0.000009	0.000000	0.0
0.000011	0.000000	0.0
0.000015	0.000000	0.0
0.000019	0.000000	0.0
0.000025	0.000000	0.0
0.000032	-0.000000	0.0
0.000040	-0.000000	0.0
0.000051	-0.000000	0.0
0.000065	-0.000000	0.0
0.000082	-0.000000	0.0
0.000103	-0.000000	0.0
0.000129	-0.000000	0.0
0.000160	-0.000000	0.0
0.000198	-0.000000	0.0
0.000244	-0.000000	0.0
0.000299	-0.000000	0.0
0.000366	-0.000000	0.0
0.000445	-0.000001	0.0
0.000539	-0.000001	0.0
0.000651	-0.000001	0.0
0.000782	-0.000001	0.0
0.000936	-0.000001	0.0
0.001116	-0.000001	0.0
0.001326	-0.000001	0.0
0.001569	-0.000002	0.0
0.001851	-0.000002	0.0
0.002177	-0.000002	0.0
0.002551	-0.000003	0.0
0.002981	-0.000003	0.0
0.003473	-0.000003	0.0
0.004037	-0.000004	0.0
0.004681	-0.000004	0.0
0.005417	-0.000004	0.0
0.006257	-0.000005	0.0
0.007218	-0.000005	0.0
0.008316	-0.000005	0.0
0.009575	-0.000005	0.0
0.011021	-0.000005	0.0
0.012689	-0.000005	0.0
0.014619	-0.000005	0.0
0.016865	-0.000005	0.0
0.019495	-0.000004	0.0
0.022599	-0.000003	0.0
0.026294	-0.000002	0.0
0.030740	-0.000002	0.0
0.036162	-0.000001	0.0
0.042880	-0.000000	0.0
0.051377	-0.000000	0.0
0.062419	-0.000001	0.0
0.077317	-0.000002	0.0
0.098558	-0.000003	0.0
0.131661	-0.000005	0.0
0.192564	-0.000006	0.0
0.000000	0.000000	0.0
0.000000	0.000000	0.0
0.000000	0.000000	0.0
0.000000	0.000000	0.0
0.000000	0.000000	0.0
0.000000	0.000000	0.0
0.000000	0.000000	0.0
0.000000	0.000000	0.0
0.000000	0.000000	0.0
0.000000	0.000000	0.0
-0.000000	0.000000	0.0
-0.000000	0.000000	0.0
-0.000000	0.000000	0.0
-0.000000	0.000000	0.0
-0.000000	0.000000	0.0
0.000000	0.000000	0.0
0.000000	0.000000	0.0
0.000000	0.000000	0.0
0.000000	0.000000	0.0
0.000000	0.000000	0.0
0.000000	0.000000	0.0
0.000000	0.000000	0.0
0.000000	0.000000	0.0
0.000000	0.000000	0.0
0.000000	0.000000	0.0
0.000000	0.000000	0.0
0.000000	0.000000	0.0
0.000000	0.000000	0.0
0.000000	0.000000	0.0
0.000000	0.000000	0.0
0.000000	0.000000	0.0
0.000000	0.000000	0.0
0.000000	0.000000	0.0
0.000000	0.000000	0.0
0.000000	0.000000	0.0
0.000001	0.000000	0.0
0.000001	0.000000	0.0
0.000001	0.000000	0.0
0.000001	0.000000	0.0
0.000002	0.000000	0.0
0.000002	0.000000	0.0
0.000003	0.000000	0.0
0.000004	0.000000	0.0
0.000006	0.000000	0.0
0.000007	0.000000	0.0
0.000010	0.000000	0.0
0.000012	0.000000	0.0
0.000016	0.000000	0.0
0.000021	0.000000	0.0
0.000027	0.000000	0.0
0.000035	0.000000	0.0
0.000044	0.000000	0.0
0.000056	0.000000	0.0
0.000071	-0.000000	0.0
0.000090	-0.000000	0.0
0.000113	-0.000000	0.0
0.000141	-0.000000	0.0
0.000175	-0.000000	0.0
0.000217	-0.000000	0.0
0.000267	-0.000000	0.0
0.000328	-0.000000	0.0
0.000400	-0.000000	0.0
0.000487	-0.000001	0.0
0.000590	-0.000001	0.0
0.000711	-0.000001	0.0
0.000855	-0.000001	0.0
0.001022	-0.000001	0.0
0.001219	-0.000001	0.0
0.001447	-0.000002	0.0
0.001711	-0.000002	0.0
0.002017	-0.000002	0.0
0.002370	-0.000002	0.0
0.002775	-0.000003	0.0
0.003240	-0.000003	0.0
0.003771	-0.000003	0.0
0.004378	-0.000004	0.0
0.005071	-0.000004	0.0
0.005860	-0.000005	0.0
0.006760	-0.000005	0.0
0.007784	-0.000005	0.0
0.008953	-0.000006	0.0
0.010289	-0.000006	0.0
0.011818	-0.000006	0.0
0.013573	-0.000006	0.0
0.015596	-0.000006	0.0
0.017940	-0.000005	0.0
0.020670	-0.000005	0.0
0.023874	-0.000004	0.0
0.027667	-0.000003	0.0
0.032203	-0.000002	0.0
0.037701	-0.000001	0.0
0.044473	-0.000000	0.0
0.052991	-0.000000	0.0
0.064008	-0.000001	0.0
0.078820	-0.000002	0.0
0.099901	-0.000003	0.0
0.132750	-0.000005	0.0
0.193272	-0.000006	0.0
0.000000	0.000000	0.0
0.000000	0.000000	0.0
0.000000	0.000000	0.0
0.000000	0.000000	0.0
0.000000	0.000000	0.0
0.000000	0.000000	0.0
0.000000	0.000000	0.0
0.000000	0.000000	0.0
0.000000	0.000000	0.0
0.000000	0.000000	0.0
0.000000	0.000000	0.0
0.000000	0.000000	0.0
0.000000	0.000000	0.0
0.000000	0.000000	0.0
0.000000	0.000000	0.0
0.000000	0.000000	0.0
0.000000	0.000000	0.0
0.000000	0.000000	0.0
0.000000	0.000000	0.0
0.000000	0.000000	0.0
0.000000	0.000000	0.0
0.000000	0.000000	0.0
0.000000	0.000000	0.0
0.000000	0.000000	0.0
0.000000	0.000000	0.0
0.000000	0.000000	0.0
0.000000	0.000000	0.0
0.000000	0.000000	0.0
0.000000	0.000000	0.0
0.000000	0.000000	0.0
0.000000	0.000000	0.0
0.000000	0.000000	0.0
0.000000	0.000000	0.0
0.000000	0.000000	0.0
0.000000	0.000000	0.0
0.000001	0.000000	0.0
0.000001	0.000000	0.0
0.000001	0.000000	0.0
0.000001	0.000000	0.0
0.000002	0.000000	0.0
0.000003	0.000000	0.0
0.000003	0.000000	0.0
0.000005	0.000000	0.0
0.000006	0.000000	0.0
0.000008	0.000000	0.0
0.000010	0.000000	0.0
0.000014	0.000000	0.0
0.000018	0.000000	0.0
0.000023	0.000000	0.0
0.000029	0.000000	0.0
0.000038	0.000000	0.0
0.000048	0.000000	0.0
0.000061	0.000000	0.0
0.000077	0.000000	0.0
0.000097	-0.000000	0.0
0.000122	-0.000000	0.0
0.000153	-0.000000	0.0
0.000190	-0.000000	0.0
0.000235	-0.000000	0.0
0.000289	-0.000000	0.0
0.000355	-0.000000	0.0
0.000433	-0.000000	0.0
0.000526	-0.000001	0.0
0.000637	-0.000001	0.0
0.000768	-0.000001	0.0
0.000922	-0.000001	0.0
0.001103	-0.000001	0.0
0.001313	-0.000001	0.0
0.001558	-0.000002	0.0
0.001842	-0.000002	0.0
0.002170	-0.000002	0.0
0.002547	-0.000003	0.0
0.002980	-0.000003	0.0
0.003476	-0.000003	0.0
0.004042	-0.000004	0.0
0.004688	-0.000004	0.0
0.005423	-0.000005	0.0
0.006259	-0.000005	0.0
0.007209	-0.000005	0.0
0.008289	-0.000006	0.0
0.009518	-0.000006	0.0
0.010917	-0.000006	0.0
0.012514	-0.000006	0.0
0.014341	-0.000006	0.0
0.016438	-0.000006	0.0
0.018858	-0.000006	0.0
0.021664	-0.000005	0.0
0.024942	-0.000004	0.0
0.028803	-0.000003	0.0
0.033399	-0.000002	0.0
0.038942	-0.000001	0.0
0.045738	-0.000001	0.0
0.054253	-0.000001	0.0
0.065231	-0.000001	0.0
0.079960	-0.000002	0.0
0.100904	-0.000003	0.0
0.133553	-0.000005	0.0
0.193789	-0.000006	0.0
0.000000	0.000000	0.0
0.000000	0.000000	0.0
0.000000	0.000000	0.0
0.000000	0.000000	0.0
0.000000	0.000000	0.0
0.000000	0.000000	0.0
0.000000	0.000000	0.0
0.000000	0.000000	0.0
0.000000	0.000000	0.0
0.000000	0.000000	0.0
0.000000	0.000000	0.0
0.000000	0.000000	0.0
0.000000	0.000000	0.0
0.000000	0.000000	0.0
0.000000	0.000000	0.0
0.000000	0.000000	0.0
0.000000	0.000000	0.0
0.000000	0.000000	0.0
0.000000	0.000000	0.0
0.000000	0.000000	0.0
0.000000	0.000000	0.0
0.000000	0.000000	0.0
0.000000	0.000000	0.0
0.000000	0.000000	0.0
0.000000	0.000000	0.0
0.000000	0.000000	0.0
0.000000	0.000000	0.0
0.000000	0.000000	0.0
0.000000	0.000000	0.0
0.000000	0.000000	0.0
0.000000	0.000000	0.0
0.000000	0.000000	0.0
0.000000	0.000000	0.0
0.000000	0.000000	0.0
0.000000	0.000000	0.0
0.000001	0.000000	0.0
0.000001	0.000000	0.0
0.000001	0.000000	0.0
0.000002	0.000000	0.0
0.000002	0.000000	0.0
0.000003	0.000000	0.0
0.000004	0.000000	0.0
0.000005	0.000000	0.0
0.000006	0.000000	0.0
0.000008	0.000000	0.0
0.000011	0.000000	0.0
0.000015	0.000000	0.0
0.000019	0.000000	0.0
0.000024	0.000000	0.0
0.000031	0.000000	0.0
0.000040	0.000000	0.0
0.000052	0.000000	0.0
0.000066	0.000000	0.0
0.000083	0.000000	0.0
0.000104	-0.000000	0.0
0.000131	-0.000000	0.0
0.000164	-0.000000	0.0
0.000203	-0.000000	0.0
0.000251	-0.000000	0.0
0.000309	-0.000000	0.0
0.000379	-0.000000	0.0
0.000463	-0.000000	0.0
0.000563	-0.000001	0.0
0.000681	-0.000001	0.0
0.000820	-0.000001	0.0
0.000984	-0.000001	0.0
0.001177	-0.000001	0.0
0.001401	-0.000001	0.0
0.001661	-0.000002	0.0
0.001962	-0.000002	0.0
0.002309	-0.000002	0.0
0.002709	-0.000003	0.0
0.003166	-0.000003	0.0
0.003690	-0.000004	0.0
0.004287	-0.000004	0.0
0.004966	-0.000004	0.0
0.005738	-0.000005	0.0
0.006614	-0.000005	0.0
0.007608	-0.000006	0.0
0.008735	-0.000006	0.0
0.010014	-0.000006	0.0
0.011467	-0.000007	0.0
0.013119	-0.000007	0.0
0.015004	-0.000007	0.0
0.017160	-0.000007	0.0
0.019638	-0.000006	0.0
0.022501	-0.000006	0.0
0.025832	-0.000005	0.0
0.029741	-0.000004	0.0
0.034375	-0.000003	0.0
0.039942	-0.000002	0.0
0.046746	-0.000001	0.0
0.055246	-0.000001	0.0
0.066181	-0.000001	0.0
0.080834	-0.000002	0.0
0.101664	-0.000004	0.0
0.134156	-0.000005	0.0
0.194175	-0.000006	0.0
0.000000	0.000000	0.0
0.000000	0.000000	0.0
0.000000	0.000000	0.0
0.000000	0.000000	0.0
0.000000	0.000000	0.0
0.000000	0.000000	0.0
0.000000	0.000000	0.0
0.000000	0.000000	0.0
0.000000	0.000000	0.0
0.000000	0.000000	0.0
0.000000	0.000000	0.0
0.000000	0.000000	0.0
0.000000	0.000000	0.0
0.000000	0.000000	0.0
0.000000	0.000000	0.0
0.000000	0.000000	0.0
0.000000	0.000000	0.0
0.000000	0.000000	0.0
0.000000	0.000000	0.0
0.000000	0.000000	0.0
0.000000	0.000000	0.0
0.000000	0.000000	0.0
0.000000	0.000000	0.0
0.000000	0.000000	0.0
0.000000	0.000000	0.0
0.000000	0.000000	0.0
0.000000	0.000000	0.0
0.000000	0.000000	0.0
0.000000	0.000000	0.0
0.000000	0.000000	0.0
0.000000	0.000000	0.0
0.000000	0.000000	0.0
0.000000	0.000000	0.0
0.000000	0.000000	0.0
0.000001	0.000000	0.0
0.000001	0.000000	0.0
0.000001	0.000000	0.0
0.000001	0.000000	0.0
0.000002	0.000000	0.0
0.000002	0.000000	0.0
0.000003	0.000000	0.0
0.000004	0.000000	0.0
0.000005	0.000000	0.0
0.000007	0.000000	0.0
0.000009	0.000000	0.0
0.000012	0.000000	0.0
0.000015	0.000000	0.0
0.000020	0.000000	0.0
0.000026	0.000000	0.0
0.000033	0.000000	0.0
0.000043	0.000000	0.0
0.000055	0.000000	0.0
0.000070	0.000000	0.0
0.000088	0.000000	0.0
0.000111	-0.000000	0.0
0.000139	-0.000000	0.0
0.000174	-0.000000	0.0
0.000216	-0.000000	0.0
0.000267	-0.000000	0.0
0.000328	-0.000000	0.0
0.000402	-0.000000	0.0
0.000491	-0.000000	0.0
0.000596	-0.000001	0.0
0.000721	-0.000001	0.0
0.000868	-0.000001	0.0
0.001042	-0.000001	0.0
0.001244	-0.000001	0.0
0.001480	-0.000002	0.0
0.001754	-0.000002	0.0
0.002071	-0.000002	0.0
0.002436	-0.000002	0.0
0.002855	-0.000003	0.0
0.003334	-0.000003	0.0
0.003882	-0.000004	0.0
0.004506	-0.000004	0.0
0.005214	-0.000005	0.0
0.006018	-0.000005	0.0
0.006929	-0.000006	0.0
0.007961	-0.000006	0.0
0.009128	-0.000007	0.0
0.010448	-0.000007	0.0
0.011945	-0.000007	0.0
0.013642	-0.000007	0.0
0.015573	-0.000007	0.0
0.017775	-0.000007	0.0
0.020298	-0.000007	0.0
0.023204	-0.000006	0.0
0.026574	-0.000005	0.0
0.030514	-0.000004	0.0
0.035171	-0.000003	0.0
0.040751	-0.000002	0.0
0.047552	-0.000001	0.0
0.056031	-0.000001	0.0
0.066924	-0.000001	0.0
0.081511	-0.000002	0.0
0.102248	-0.000004	0.0
0.134615	-0.000005	0.0
0.194467	-0.000006	0.0
0.000000	0.000000	0.0
0.000000	0.000000	0.0
0.000000	0.000000	0.0
0.000000	0.000000	0.0
0.000000	0.000000	0.0
0.000000	0.000000	0.0
0.000000	0.000000	0.0
0.000000	0.000000	0.0
0.000000	0.000000	0.0
0.000000	0.000000	0.0
0.000000	0.000000	0.0
0.000000	0.000000	0.0
0.000000	0.000000	0.0
0.000000	0.000000	0.0
0.000000	0.000000	0.0
0.000000	0.000000	0.0
0.000000	0.000000	0.0
0.000000	0.000000	0.0
0.000000	0.000000	0.0
0.000000	0.000000	0.0
0.000000	0.000000	0.0
0.000000	0.000000	0.0
0.000000	0.000000	0.0
0.000000	0.000000	0.0
0.000000	0.000000	0.0
0.000000	0.000000	0.0
0.000000	0.000000	0.0
0.000000	0.000000	0.0
0.000000	0.000000	0.0
0.000000	0.000000	0.0
0.000000	0.000000	0.0
0.000000	0.000000	0.0
0.000000	0.000000	0.0
0.000000	0.000000	0.0
0.000001	0.000000	0.0
0.000001	0.000000	0.0
0.000001	0.000000	0.0
0.000001	0.000000	0.0
0.000002	0.000000	0.0
0.000002	0.000000	0.0
0.000003	0.000000	0.0
0.000004	0.000000	0.0
0.000005	0.000000	0.0
0.000007	0.000000	0.0
0.000010	0.000000	0.0
0.000012	0.000000	0.0
0.000016	0.000000	0.0
0.000021	0.000000	0.0
0.000027	0.000000	0.0
0.000035	0.000000	0.0
0.000045	0.000000	0.0
0.000058	0.000000	0.0
0.000073	0.000000	0.0
0.000093	0.000000	0.0
0.000117	-0.000000	0.0
0.000147	-0.000000	0.0
0.000183	-0.000000	0.0
0.000227	-0.000000	0.0
0.000281	-0.000000	0.0
0.000345	-0.000000	0.0
0.000423	-0.000000	0.0
0.000516	-0.000000	0.0
0.000627	-0.000001	0.0