# vtk DataFile Version 3.0
Header
ASCII
DATASET RECTILINEAR_GRID
DIMENSIONS 98 98 1
X_COORDINATES 98 double
0.030000 0.050000 0.070000 0.090000 0.110000 0.130000 0.150000 0.170000 0.190000 0.210000 0.230000 0.250000 0.270000 0.290000 0.310000 0.330000 0.350000 0.370000 0.390000 0.410000 0.430000 0.450000 0.470000 0.490000 0.510000 0.530000 0.550000 0.570000 0.590000 0.610000 0.630000 0.650000 0.670000 0.690000 0.710000 0.730000 0.750000 0.770000 0.790000 0.810000 0.830000 0.850000 0.870000 0.890000 0.910000 0.930000 0.950000 0.970000 0.990000 1.010000 1.030000 1.050000 1.070000 1.090000 1.110000 1.130000 1.150000 1.170000 1.190000 1.210000 1.230000 1.250000 1.270000 1.290000 1.310000 1.330000 1.350000 1.370000 1.390000 1.410000 1.430000 1.450000 1.470000 1.490000 1.510000 1.530000 1.550000 1.570000 1.590000 1.610000 1.630000 1.650000 1.670000 1.690000 1.710000 1.730000 1.750000 1.770000 1.790000 1.810000 1.830000 1.850000 1.870000 1.890000 1.910000 1.930000 1.950000 1.970000 
Y_COORDINATES 98 double
0.030000 0.050000 0.070000 0.090000 0.110000 0.130000 0.150000 0.170000 0.190000 0.210000 0.230000 0.250000 0.270000 0.290000 0.310000 0.330000 0.350000 0.370000 0.390000 0.410000 0.430000 0.450000 0.470000 0.490000 0.510000 0.530000 0.550000 0.570000 0.590000 0.610000 0.630000 0.650000 0.670000 0.690000 0.710000 0.730000 0.750000 0.770000 0.790000 0.810000 0.830000 0.850000 0.870000 0.890000 0.910000 0.930000 0.950000 0.970000 0.990000 1.010000 1.030000 1.050000 1.070000 1.090000 1.110000 1.130000 1.150000 1.170000 1.190000 1.210000 1.230000 1.250000 1.270000 1.290000 1.310000 1.330000 1.350000 1.370000 1.390000 1.410000 1.430000 1.450000 1.470000 1.490000 1.510000 1.530000 1.550000 1.570000 1.590000 1.610000 1.630000 1.650000 1.670000 1.690000 1.710000 1.730000 1.750000 1.770000 1.790000 1.810000 1.830000 1.850000 1.870000 1.890000 1.910000 1.930000 1.950000 1.970000 
Z_COORDINATES 1 double
0.0
POINT_DATA 9604
VECTORS velocity double
-0.000001	-0.000002	0.0
-0.000000	-0.000002	0.0
0.000001	-0.000001	0.0
0.000002	-0.000000	0.0
0.000004	0.000000	0.0
0.000005	0.000000	0.0
0.000006	0.000000	0.0
0.000006	0.000000	0.0
0.000007	0.000000	0.0
0.000008	0.000000	0.0
0.000009	0.000000	0.0
0.000010	0.000000	0.0
0.000012	0.000001	0.0
0.000013	0.000001	0.0
0.000014	0.000001	0.0
0.000016	0.000001	0.0
0.000017	0.000001	0.0
0.000019	0.000001	0.0
0.000021	0.000001	0.0
0.000023	0.000001	0.0
0.000025	0.000001	0.0
0.000027	0.000001	0.0
0.000029	0.000001	0.0
0.000032	0.000001	0.0
0.000034	0.000001	0.0
0.000037	0.000001	0.0
0.000040	0.000001	0.0
0.000044	0.000001	0.0
0.000047	0.000001	0.0
0.000051	0.000001	0.0
0.000056	0.000001	0.0
0.000060	0.000001	0.0
0.000065	0.000001	0.0
0.000070	0.000001	0.0
0.000075	0.000001	0.0
0.000081	0.000001	0.0
0.000087	0.000001	0.0
0.000094	0.000001	0.0
0.000101	0.000001	0.0
0.000109	0.000001	0.0
0.000117	0.000001	0.0
0.000126	0.000001	0.0
0.000135	0.000001	0.0
0.000145	0.000001	0.0
0.000155	0.000001	0.0
0.000166	0.000001	0.0
0.000178	0.000001	0.0
0.000191	0.000001	0.0
0.000205	0.000001	0.0
0.000219	0.000001	0.0
0.000235	0.000001	0.0
0.000252	0.000001	0.0
0.000269	0.000000	0.0
0.000289	0.000000	0.0
0.000309	0.000000	0.0
0.000331	0.000000	0.0
0.000354	0.000000	0.0
0.000379	0.000000	0.0
0.000406	0.000000	0.0
0.000435	0.000000	0.0
0.000466	0.000000	0.0
0.000500	0.000000	0.0
0.000536	0.000000	0.0
0.000576	0.000000	0.0
0.000618	0.000000	0.0
0.000665	0.000000	0.0
0.000715	0.000000	0.0
0.000770	0.000000	0.0
0.000830	-0.000000	0.0
0.000896	-0.000000	0.0
0.000968	-0.000000	0.0
0.001048	-0.000000	0.0
0.001137	-0.000001	0.0
0.001235	-0.000001	0.0
0.001345	-0.000001	0.0
0.001469	-0.000001	0.0
0.001608	-0.000002	0.0
0.001765	-0.000002	0.0
0.001944	-0.000002	0.0
0.002150	-0.000003	0.0
0.002387	-0.000003	0.0
0.002663	-0.000004	0.0
0.002986	-0.000004	0.0
0.003370	-0.000005	0.0
0.003829	-0.000006	0.0
0.004385	-0.000006	0.0
0.005067	-0.000007	0.0
0.005919	-0.000008	0.0
0.007000	-0.000008	0.0
0.008403	-0.000009	0.0
0.010270	-0.000010	0.0
0.012834	-0.000011	0.0
0.016491	-0.000011	0.0
0.021967	-0.000012	0.0
0.030694	-0.000013	0.0
0.045796	-0.000013	0.0
0.074990	-0.000012	0.0
0.141655	-0.000007	0.0
-0.000000	-0.000002	0.0
0.000001	-0.000002	0.0
0.000003	-0.000001	0.0
0.000005	-0.000000	0.0
0.000006	0.000000	0.0
0.000008	0.000001	0.0
0.000009	0.000001	0.0
0.000011	0.000001	0.0
0.000012	0.000001	0.0
0.000014	0.000001	0.0
0.000016	0.000001	0.0
0.000017	0.000001	0.0
0.000019	0.000001	0.0
0.000021	0.000001	0.0
0.000024	0.000001	0.0
0.000026	0.000001	0.0
0.000028	0.000001	0.0
0.000031	0.000001	0.0
0.000034	0.000001	0.0
0.000037	0.000001	0.0
0.000041	0.000001	0.0
0.000044	0.000001	0.0
0.000048	0.000001	0.0
0.000053	0.000001	0.0
0.000057	0.000001	0.0
0.000062	0.000001	0.0
0.000067	0.000001	0.0
0.000073	0.000001	0.0
0.000079	0.000001	0.0
0.000085	0.000001	0.0
0.000092	0.000001	0.0
0.000100	0.000001	0.0
0.000108	0.000001	0.0
0.000116	0.000001	0.0
0.000125	0.000001	0.0
0.000135	0.000001	0.0
0.000145	0.000001	0.0
0.000156	0.000001	0.0
0.000168	0.000001	0.0
0.000181	0.000001	0.0
0.000194	0.000001	0.0
0.000209	0.000001	0.0
0.000224	0.000001	0.0
0.000241	0.000001	0.0
0.000258	0.000001	0.0
0.000277	0.000001	0.0
0.000297	0.000001	0.0
0.000318	0.000001	0.0
0.000341	0.000001	0.0
0.000365	0.000001	0.0
0.000391	0.000001	0.0
0.000418	0.000001	0.0
0.000448	0.000001	0.0
0.000480	0.000001	0.0
0.000513	0.000001	0.0
0.000550	0.000001	0.0
0.000589	0.000001	0.0
0.000630	0.000001	0.0
0.000675	0.000001	0.0
0.000723	0.000001	0.0
0.000775	0.000001	0.0
0.000831	0.000001	0.0
0.000891	0.000001	0.0
0.000956	0.000001	0.0
0.001027	0.000000	0.0
0.001104	0.000000	0.0
0.001187	0.000000	0.0
0.001278	0.000000	0.0
0.001377	-0.000000	0.0
0.001487	-0.000000	0.0
0.001606	-0.000000	0.0
0.001739	-0.000001	0.0
0.001885	-0.000001	0.0
0.002047	-0.000001	0.0
0.002229	-0.000002	0.0
0.002432	-0.000002	0.0
0.002660	-0.000003	0.0
0.002919	-0.000003	0.0
0.003213	-0.000004	0.0
0.003550	-0.000005	0.0
0.003939	-0.000005	0.0
0.004389	-0.000006	0.0
0.004917	-0.000007	0.0
0.005540	-0.000008	0.0
0.006284	-0.000009	0.0
0.007182	-0.000010	0.0
0.008278	-0.000011	0.0
0.009639	-0.000013	0.0
0.011354	-0.000014	0.0
0.013558	-0.000015	0.0
0.016456	-0.000016	0.0
0.020370	-0.000017	0.0
0.025824	-0.000018	0.0
0.033725	-0.000019	0.0
0.045725	-0.000020	0.0
0.065073	-0.000020	0.0
0.098922	-0.000018	0.0
0.166887	-0.000013	0.0
0.000001	-0.000001	0.0
0.000003	-0.000001	0.0
0.000005	-0.000001	0.0
0.000007	-0.000000	0.0
0.000009	0.000000	0.0
0.000011	0.000000	0.0
0.000013	0.000001	0.0
0.000015	0.000001	0.0
0.000017	0.000001	0.0
0.000019	0.000001	0.0
0.000022	0.000001	0.0
0.000024	0.000001	0.0
0.000027	0.000001	0.0
0.000030	0.000001	0.0
0.000033	0.000001	0.0
0.000036	0.000001	0.0
0.000040	0.000001	0.0
0.000043	0.000001	0.0
0.000048	0.000001	0.0
0.000052	0.000001	0.0
0.000057	0.000001	0.0
0.000062	0.000001	0.0
0.000067	0.000001	0.0
0.000073	0.000001	0.0
0.000080	0.000001	0.0
0.000086	0.000001	0.0
0.000094	0.000001	0.0
0.000102	0.000001	0.0
0.000110	0.000001	0.0
0.000119	0.000001	0.0
0.000129	0.000001	0.0
0.000139	0.000001	0.0
0.000150	0.000001	0.0
0.000162	0.000001	0.0
0.000175	0.000001	0.0
0.000188	0.000001	0.0
0.000203	0.000001	0.0
0.000218	0.000001	0.0
0.000235	0.000001	0.0
0.000252	0.000001	0.0
0.000271	0.000001	0.0
0.000291	0.000001	0.0
0.000313	0.000001	0.0
0.000336	0.000001	0.0
0.000360	0.000001	0.0
0.000386	0.000001	0.0
0.000414	0.000001	0.0
0.000444	0.000001	0.0
0.000475	0.000001	0.0
0.000509	0.000001	0.0
0.000545	0.000001	0.0
0.000584	0.000001	0.0
0.000625	0.000001	0.0
0.000669	0.000001	0.0
0.000716	0.000001	0.0
0.000767	0.000001	0.0
0.000821	0.000001	0.0
0.000879	0.000001	0.0
0.000941	0.000001	0.0
0.001008	0.000001	0.0
0.001080	0.000001	0.0
0.001158	0.000000	0.0
0.001242	0.000000	0.0
0.001332	0.000000	0.0
0.001430	0.000000	0.0
0.001537	0.000000	0.0
0.001652	-0.000000	0.0
0.001779	-0.000000	0.0
0.001916	-0.000000	0.0
0.002067	-0.000001	0.0
0.002233	-0.000001	0.0
0.002416	-0.000001	0.0
0.002618	-0.000002	0.0
0.002842	-0.000002	0.0
0.003092	-0.000003	0.0
0.003372	-0.000003	0.0
0.003686	-0.000004	0.0
0.004041	-0.000005	0.0
0.004445	-0.000006	0.0
0.004905	-0.000007	0.0
0.005435	-0.000008	0.0
0.006048	-0.000009	0.0
0.006764	-0.000010	0.0
0.007606	-0.000012	0.0
0.008607	-0.000013	0.0
0.009809	-0.000015	0.0
0.011268	-0.000016	0.0
0.013065	-0.000018	0.0
0.015309	-0.000019	0.0
0.018162	-0.000021	0.0
0.021859	-0.000022	0.0
0.026760	-0.000024	0.0
0.033433	-0.000025	0.0
0.042810	-0.000027	0.0
0.056506	-0.000027	0.0
0.077546	-0.000027	0.0
0.112357	-0.000025	0.0
0.178528	-0.000018	0.0
0.000002	-0.000001	0.0
0.000004	-0.000001	0.0
0.000007	-0.000000	0.0
0.000009	-0.000000	0.0
0.000011	0.000000	0.0
0.000014	0.000000	0.0
0.000016	0.000000	0.0
0.000019	0.000000	0.0
0.000022	0.000000	0.0
0.000024	0.000001	0.0
0.000027	0.000001	0.0
0.000031	0.000001	0.0
0.000034	0.000001	0.0
0.000038	0.000001	0.0
0.000042	0.000001	0.0
0.000046	0.000001	0.0
0.000051	0.000001	0.0
0.000056	0.000001	0.0
0.000061	0.000001	0.0
0.000067	0.000001	0.0
0.000073	0.000001	0.0
0.000079	0.000001	0.0
0.000086	0.000001	0.0
0.000094	0.000001	0.0
0.000102	0.000001	0.0
0.000111	0.000001	0.0
0.000120	0.000001	0.0
0.000130	0.000001	0.0
0.000141	0.000001	0.0
0.000153	0.000001	0.0
0.000165	0.000001	0.0
0.000178	0.000001	0.0
0.000192	0.000001	0.0
0.000208	0.000001	0.0
0.000224	0.000001	0.0
0.000241	0.000001	0.0
0.000260	0.000001	0.0
0.000280	0.000001	0.0
0.000301	0.000001	0.0
0.000323	0.000001	0.0
0.000348	0.000001	0.0
0.000373	0.000001	0.0
0.000401	0.000001	0.0
0.000430	0.000001	0.0
0.000461	0.000001	0.0
0.000495	0.000001	0.0
0.000530	0.000001	0.0
0.000568	0.000001	0.0
0.000609	0.000001	0.0
0.000652	0.000001	0.0
0.000698	0.000001	0.0
0.000747	0.000001	0.0
0.000800	0.000001	0.0
0.000856	0.000001	0.0
0.000917	0.000001	0.0
0.000981	0.000001	0.0
0.001050	0.000000	0.0
0.001124	0.000000	0.0
0.001204	0.000000	0.0
0.001289	0.000000	0.0
0.001381	0.000000	0.0
0.001480	0.000000	0.0
0.001586	0.000000	0.0
0.001702	0.000000	0.0
0.001827	-0.000000	0.0
0.001962	-0.000000	0.0
0.002109	-0.000000	0.0
0.002269	-0.000001	0.0
0.002444	-0.000001	0.0
0.002635	-0.000001	0.0
0.002846	-0.000002	0.0
0.003077	-0.000002	0.0
0.003332	-0.000003	0.0
0.003615	-0.000003	0.0
0.003930	-0.000004	0.0
0.004282	-0.000005	0.0
0.004677	-0.000005	0.0
0.005122	-0.000006	0.0
0.005627	-0.000008	0.0
0.006202	-0.000009	0.0
0.006861	-0.000010	0.0
0.007622	-0.000012	0.0
0.008506	-0.000013	0.0
0.009543	-0.000015	0.0
0.010768	-0.000017	0.0
0.012231	-0.000019	0.0
0.013996	-0.000021	0.0
0.016150	-0.000023	0.0
0.018816	-0.000025	0.0
0.022165	-0.000026	0.0
0.026444	-0.000028	0.0
0.032020	-0.000030	0.0
0.039456	-0.000032	0.0
0.049651	-0.000033	0.0
0.064124	-0.000034	0.0
0.085681	-0.000034	0.0
0.120294	-0.000031	0.0
0.184642	-0.000022	0.0
0.000003	-0.000000	0.0
0.000006	-0.000000	0.0
0.000008	-0.000000	0.0
0.000011	-0.000000	0.0
0.000014	0.000000	0.0
0.000017	0.000000	0.0
0.000020	0.000000	0.0
0.000023	0.000000	0.0
0.000026	0.000000	0.0
0.000030	0.000000	0.0
0.000033	0.000000	0.0
0.000037	0.000000	0.0
0.000042	0.000000	0.0
0.000046	0.000001	0.0
0.000051	0.000001	0.0
0.000056	0.000001	0.0
0.000062	0.000001	0.0
0.000068	0.000001	0.0
0.000074	0.000001	0.0
0.000081	0.000001	0.0
0.000088	0.000001	0.0
0.000096	0.000001	0.0
0.000105	0.000001	0.0
0.000114	0.000001	0.0
0.000124	0.000001	0.0
0.000135	0.000001	0.0
0.000146	0.000001	0.0
0.000159	0.000001	0.0
0.000172	0.000001	0.0
0.000186	0.000001	0.0
0.000201	0.000001	0.0
0.000217	0.000001	0.0
0.000234	0.000001	0.0
0.000253	0.000001	0.0
0.000273	0.000001	0.0
0.000294	0.000000	0.0
0.000316	0.000000	0.0
0.000340	0.000000	0.0
0.000366	0.000000	0.0
0.000394	0.000000	0.0
0.000423	0.000000	0.0
0.000454	0.000000	0.0
0.000488	0.000000	0.0
0.000523	0.000000	0.0
0.000561	0.000000	0.0
0.000602	0.000000	0.0
0.000645	0.000000	0.0
0.000691	0.000000	0.0
0.000740	0.000000	0.0
0.000793	0.000000	0.0
0.000849	0.000000	0.0
0.000909	0.000000	0.0
0.000973	0.000000	0.0
0.001041	0.000000	0.0
0.001114	0.000000	0.0
0.001192	0.000000	0.0
0.001276	0.000000	0.0
0.001365	0.000000	0.0
0.001462	0.000000	0.0
0.001565	0.000000	0.0
0.001676	0.000000	0.0
0.001796	0.000000	0.0
0.001924	-0.000000	0.0
0.002064	-0.000000	0.0
0.002214	-0.000000	0.0
0.002378	-0.000001	0.0
0.002555	-0.000001	0.0
0.002748	-0.000001	0.0
0.002958	-0.000001	0.0
0.003188	-0.000002	0.0
0.003440	-0.000002	0.0
0.003717	-0.000003	0.0
0.004023	-0.000003	0.0
0.004362	-0.000004	0.0
0.004738	-0.000005	0.0
0.005157	-0.000006	0.0
0.005626	-0.000007	0.0
0.006154	-0.000008	0.0
0.006751	-0.000009	0.0
0.007430	-0.000011	0.0
0.008205	-0.000012	0.0
0.009097	-0.000014	0.0
0.010130	-0.000016	0.0
0.011335	-0.000018	0.0
0.012752	-0.000020	0.0
0.014432	-0.000023	0.0
0.016446	-0.000025	0.0
0.018884	-0.000027	0.0
0.021872	-0.000029	0.0
0.025584	-0.000032	0.0
0.030267	-0.000034	0.0
0.036279	-0.000035	0.0
0.044162	-0.000037	0.0
0.054769	-0.000039	0.0
0.069537	-0.000039	0.0
0.091120	-0.000039	0.0
0.125251	-0.000035	0.0
0.188201	-0.000026	0.0
0.000004	-0.000000	0.0
0.000007	-0.000000	0.0
0.000010	-0.000000	0.0
0.000013	0.000000	0.0
0.000016	0.000000	0.0
0.000020	0.000000	0.0
0.000023	0.000000	0.0
0.000027	0.000000	0.0
0.000031	0.000000	0.0
0.000035	0.000000	0.0
0.000039	0.000000	0.0
0.000044	0.000000	0.0
0.000049	0.000000	0.0
0.000054	0.000000	0.0
0.000060	0.000000	0.0
0.000066	0.000000	0.0
0.000073	0.000000	0.0
0.000080	0.000000	0.0
0.000087	0.000000	0.0
0.000095	0.000000	0.0
0.000104	0.000000	0.0
0.000114	0.000000	0.0
0.000124	0.000000	0.0
0.000135	0.000000	0.0
0.000146	0.000000	0.0
0.000159	0.000000	0.0
0.000172	0.000000	0.0
0.000187	0.000000	0.0
0.000202	0.000000	0.0
0.000219	0.000000	0.0
0.000236	0.000000	0.0
0.000255	0.000000	0.0
0.000276	0.000000	0.0
0.000298	0.000000	0.0
0.000321	0.000000	0.0
0.000346	0.000000	0.0
0.000372	0.000000	0.0
0.000401	0.000000	0.0
0.000431	0.000000	0.0
0.000463	0.000000	0.0
0.000498	0.000000	0.0
0.000534	0.000000	0.0
0.000574	0.000000	0.0
0.000615	0.000000	0.0
0.000660	0.000000	0.0
0.000708	0.000000	0.0
0.000758	0.000000	0.0
0.000812	0.000000	0.0
0.000870	0.000000	0.0
0.000932	0.000000	0.0
0.000997	0.000000	0.0
0.001067	0.000000	0.0
0.001142	0.000000	0.0
0.001222	0.000000	0.0
0.001308	0.000000	0.0
0.001399	0.000000	0.0
0.001497	0.000000	0.0
0.001602	0.000000	0.0
0.001714	0.000000	0.0
0.001835	0.000000	0.0
0.001965	-0.000000	0.0
0.002104	-0.000000	0.0
0.002254	-0.000000	0.0
0.002417	-0.000000	0.0
0.002592	-0.000001	0.0
0.002782	-0.000001	0.0
0.002988	-0.000001	0.0
0.003212	-0.000001	0.0
0.003456	-0.000002	0.0
0.003722	-0.000002	0.0
0.004014	-0.000003	0.0
0.004335	-0.000003	0.0
0.004688	-0.000004	0.0
0.005078	-0.000005	0.0
0.005510	-0.000006	0.0
0.005991	-0.000007	0.0
0.006529	-0.000008	0.0
0.007133	-0.000009	0.0
0.007813	-0.000011	0.0
0.008584	-0.000013	0.0
0.009462	-0.000015	0.0
0.010469	-0.000017	0.0
0.011629	-0.000019	0.0
0.012976	-0.000021	0.0
0.014552	-0.000024	0.0
0.016410	-0.000026	0.0
0.018621	-0.000029	0.0
0.021277	-0.000031	0.0
0.024503	-0.000034	0.0
0.028472	-0.000036	0.0
0.033423	-0.000038	0.0
0.039702	-0.000040	0.0
0.047828	-0.000042	0.0
0.058616	-0.000043	0.0
0.073440	-0.000044	0.0
0.094868	-0.000043	0.0
0.128508	-0.000039	0.0
0.190440	-0.000029	0.0
0.000005	-0.000000	0.0
0.000008	-0.000000	0.0
0.000012	-0.000000	0.0
0.000015	0.000000	0.0
0.000019	0.000000	0.0
0.000023	0.000000	0.0
0.000027	0.000000	0.0
0.000031	0.000000	0.0
0.000035	0.000000	0.0
0.000040	0.000000	0.0
0.000045	0.000000	0.0
0.000051	0.000000	0.0
0.000056	0.000000	0.0
0.000062	0.000000	0.0
0.000069	0.000000	0.0
0.000076	0.000000	0.0
0.000083	0.000000	0.0
0.000092	0.000000	0.0
0.000100	0.000000	0.0
0.000110	0.000000	0.0
0.000120	0.000000	0.0
0.000130	0.000000	0.0
0.000142	0.000000	0.0
0.000155	0.000000	0.0
0.000168	0.000000	0.0
0.000182	0.000000	0.0
0.000198	0.000000	0.0
0.000214	0.000000	0.0
0.000232	0.000000	0.0
0.000251	0.000000	0.0
0.000272	0.000000	0.0
0.000293	0.000000	0.0
0.000317	0.000000	0.0
0.000342	0.000000	0.0
0.000368	0.000000	0.0
0.000397	0.000000	0.0
0.000427	0.000000	0.0
0.000460	0.000000	0.0
0.000494	0.000000	0.0
0.000532	0.000000	0.0
0.000571	0.000000	0.0
0.000613	0.000000	0.0
0.000658	0.000000	0.0
0.000706	0.000000	0.0
0.000757	0.000000	0.0
0.000812	0.000000	0.0
0.000870	0.000000	0.0
0.000932	0.000000	0.0
0.000998	0.000000	0.0
0.001068	0.000000	0.0
0.001143	0.000000	0.0
0.001223	0.000000	0.0
0.001309	0.000000	0.0
0.001400	0.000000	0.0
0.001497	0.000000	0.0
0.001602	0.000000	0.0
0.001713	0.000000	0.0
0.001833	0.000000	0.0
0.001961	-0.000000	0.0
0.002098	-0.000000	0.0
0.002246	-0.000000	0.0
0.002405	-0.000000	0.0
0.002576	-0.000000	0.0
0.002760	-0.000001	0.0
0.002959	-0.000001	0.0
0.003174	-0.000001	0.0
0.003407	-0.000001	0.0
0.003661	-0.000002	0.0
0.003936	-0.000002	0.0
0.004237	-0.000003	0.0
0.004566	-0.000003	0.0
0.004927	-0.000004	0.0
0.005324	-0.000005	0.0
0.005761	-0.000006	0.0
0.006245	-0.000007	0.0
0.006783	-0.000008	0.0
0.007383	-0.000009	0.0
0.008054	-0.000011	0.0
0.008808	-0.000012	0.0
0.009660	-0.000014	0.0
0.010628	-0.000016	0.0
0.011733	-0.000019	0.0
0.013001	-0.000021	0.0
0.014467	-0.000024	0.0
0.016172	-0.000026	0.0
0.018171	-0.000029	0.0
0.020534	-0.000032	0.0
0.023354	-0.000035	0.0
0.026752	-0.000038	0.0
0.030895	-0.000040	0.0
0.036017	-0.000042	0.0
0.042450	-0.000045	0.0
0.050693	-0.000046	0.0
0.061534	-0.000047	0.0
0.076306	-0.000048	0.0
0.097528	-0.000046	0.0
0.130744	-0.000042	0.0
0.191935	-0.000031	0.0
0.000006	-0.000000	0.0
0.000009	-0.000000	0.0
0.000013	0.000000	0.0
0.000017	0.000000	0.0
0.000021	0.000000	0.0
0.000026	0.000000	0.0
0.000030	0.000000	0.0
0.000035	0.000000	0.0
0.000040	0.000000	0.0
0.000045	0.000000	0.0
0.000051	0.000000	0.0
0.000057	0.000000	0.0
0.000063	0.000000	0.0
0.000070	0.000000	0.0
0.000078	0.000000	0.0
0.000086	0.000000	0.0
0.000094	0.000000	0.0
0.000103	0.000000	0.0
0.000113	0.000000	0.0
0.000124	0.000000	0.0
0.000135	0.000000	0.0
0.000147	0.000000	0.0
0.000160	0.000000	0.0
0.000174	0.000000	0.0
0.000189	0.000000	0.0
0.000206	0.000000	0.0
0.000223	0.000000	0.0
0.000242	0.000000	0.0
0.000262	0.000000	0.0
0.000283	0.000000	0.0
0.000306	0.000000	0.0
0.000331	0.000000	0.0
0.000357	0.000000	0.0
0.000385	0.000000	0.0
0.000415	0.000000	0.0
0.000447	0.000000	0.0
0.000481	0.000000	0.0
0.000518	0.000000	0.0
0.000557	0.000000	0.0
0.000599	0.000000	0.0
0.000643	0.000000	0.0
0.000691	0.000000	0.0
0.000741	0.000000	0.0
0.000795	0.000000	0.0
0.000852	0.000000	0.0
0.000914	0.000000	0.0
0.000979	0.000000	0.0
0.001048	0.000000	0.0
0.001122	0.000000	0.0
0.001201	0.000000	0.0
0.001286	0.000000	0.0
0.001375	0.000000	0.0
0.001471	0.000000	0.0
0.001573	0.000000	0.0
0.001683	0.000000	0.0
0.001800	0.000000	0.0
0.001924	-0.000000	0.0
0.002058	-0.000000	0.0
0.002201	-0.000000	0.0
0.002355	-0.000000	0.0
0.002519	-0.000000	0.0
0.002696	-0.000001	0.0
0.002887	-0.000001	0.0
0.003092	-0.000001	0.0
0.003313	-0.000001	0.0
0.003553	-0.000001	0.0
0.003812	-0.000002	0.0
0.004093	-0.000002	0.0
0.004398	-0.000003	0.0
0.004731	-0.000003	0.0
0.005094	-0.000004	0.0
0.005492	-0.000004	0.0
0.005929	-0.000005	0.0
0.006410	-0.000006	0.0
0.006941	-0.000007	0.0
0.007530	-0.000009	0.0
0.008185	-0.000010	0.0
0.008916	-0.000012	0.0
0.009735	-0.000014	0.0
0.010658	-0.000016	0.0
0.011703	-0.000018	0.0
0.012891	-0.000021	0.0
0.014249	-0.000023	0.0
0.015811	-0.000026	0.0
0.017620	-0.000029	0.0
0.019730	-0.000032	0.0
0.022209	-0.000035	0.0
0.025147	-0.000038	0.0
0.028665	-0.000041	0.0
0.032924	-0.000044	0.0
0.038149	-0.000046	0.0
0.044662	-0.000048	0.0
0.052949	-0.000050	0.0
0.063774	-0.000051	0.0
0.078452	-0.000051	0.0
0.099468	-0.000049	0.0
0.132337	-0.000044	0.0
0.192981	-0.000033	0.0
0.000006	-0.000000	0.0
0.000010	0.000000	0.0
0.000015	0.000000	0.0
0.000019	0.000000	0.0
0.000024	0.000000	0.0
0.000029	0.000000	0.0
0.000034	0.000000	0.0
0.000039	0.000000	0.0
0.000044	0.000000	0.0
0.000050	0.000000	0.0
0.000057	0.000000	0.0
0.000063	0.000000	0.0
0.000071	0.000000	0.0
0.000078	0.000000	0.0
0.000086	0.000000	0.0
0.000095	0.000000	0.0
0.000105	0.000000	0.0
0.000115	0.000000	0.0
0.000126	0.000000	0.0
0.000137	0.000000	0.0
0.000150	0.000000	0.0
0.000164	0.000000	0.0
0.000178	0.000000	0.0
0.000194	0.000000	0.0
0.000211	0.000000	0.0
0.000229	0.000000	0.0
0.000248	0.000000	0.0
0.000269	0.000000	0.0
0.000291	0.000000	0.0
0.000315	0.000000	0.0
0.000340	0.000000	0.0
0.000367	0.000000	0.0
0.000397	0.000000	0.0
0.000428	0.000000	0.0
0.000461	0.000000	0.0
0.000497	0.000000	0.0
0.000535	0.000000	0.0
0.000575	0.000000	0.0
0.000619	0.000000	0.0
0.000665	0.000000	0.0
0.000714	0.000000	0.0
0.000767	0.000000	0.0
0.000823	0.000000	0.0
0.000882	0.000000	0.0
0.000946	0.000000	0.0
0.001013	0.000000	0.0
0.001086	0.000000	0.0
0.001163	0.000000	0.0
0.001244	0.000000	0.0
0.001332	0.000000	0.0
0.001425	0.000000	0.0
0.001524	0.000000	0.0
0.001630	0.000000	0.0
0.001743	0.000000	0.0
0.001863	-0.000000	0.0
0.001992	-0.000000	0.0
0.002130	-0.000000	0.0
0.002277	-0.000000	0.0
0.002434	-0.000000	0.0
0.002603	-0.000000	0.0
0.002784	-0.000001	0.0
0.002978	-0.000001	0.0
0.003187	-0.000001	0.0
0.003412	-0.000001	0.0
0.003655	-0.000001	0.0
0.003917	-0.000002	0.0
0.004200	-0.000002	0.0
0.004507	-0.000002	0.0
0.004840	-0.000003	0.0
0.005202	-0.000003	0.0
0.005597	-0.000004	0.0
0.006029	-0.000005	0.0
0.006503	-0.000006	0.0
0.007023	-0.000007	0.0
0.007597	-0.000008	0.0
0.008231	-0.000010	0.0
0.008935	-0.000011	0.0
0.009719	-0.000013	0.0
0.010595	-0.000015	0.0
0.011579	-0.000017	0.0
0.012688	-0.000020	0.0
0.013945	-0.000022	0.0
0.015378	-0.000025	0.0
0.017018	-0.000028	0.0
0.018909	-0.000031	0.0
0.021103	-0.000035	0.0
0.023668	-0.000038	0.0
0.026692	-0.000041	0.0
0.030291	-0.000044	0.0
0.034623	-0.000047	0.0
0.039905	-0.000049	0.0
0.046452	-0.000051	0.0
0.054739	-0.000053	0.0
0.065518	-0.000054	0.0
0.080087	-0.000054	0.0
0.100919	-0.000052	0.0
0.133508	-0.000047	0.0
0.193739	-0.000035	0.0
0.000007	0.000000	0.0
0.000012	0.000000	0.0
0.000016	0.000000	0.0
0.000021	0.000000	0.0
0.000026	0.000000	0.0
0.000031	0.000000	0.0
0.000037	0.000000	0.0
0.000043	0.000000	0.0
0.000049	0.000000	0.0
0.000055	0.000000	0.0
0.000062	0.000000	0.0
0.000070	0.000000	0.0
0.000078	0.000000	0.0
0.000086	0.000000	0.0
0.000095	0.000000	0.0
0.000105	0.000000	0.0
0.000115	0.000000	0.0
0.000126	0.000000	0.0
0.000138	0.000000	0.0
0.000151	0.000000	0.0
0.000165	0.000000	0.0
0.000180	0.000000	0.0
0.000196	0.000000	0.0
0.000213	0.000000	0.0
0.000231	0.000000	0.0
0.000251	0.000000	0.0
0.000272	0.000000	0.0
0.000295	0.000000	0.0
0.000320	0.000000	0.0
0.000346	0.000000	0.0
0.000374	0.000000	0.0
0.000404	0.000000	0.0
0.000436	0.000000	0.0
0.000470	0.000000	0.0
0.000506	0.000000	0.0
0.000545	0.000000	0.0
0.000587	0.000000	0.0
0.000631	0.000000	0.0
0.000679	0.000000	0.0
0.000729	0.000000	0.0
0.000783	0.000000	0.0
0.000841	0.000000	0.0
0.000902	0.000000	0.0
0.000967	0.000000	0.0
0.001037	0.000000	0.0
0.001111	0.000000	0.0
0.001190	0.000000	0.0
0.001274	0.000000	0.0
0.001363	0.000000	0.0
0.001459	0.000000	0.0
0.001560	-0.000000	0.0
0.001669	-0.000000	0.0
0.001784	-0.000000	0.0
0.001907	-0.000000	0.0
0.002038	-0.000000	0.0
0.002179	-0.000000	0.0
0.002328	-0.000000	0.0
0.002488	-0.000000	0.0
0.002660	-0.000000	0.0
0.002843	-0.000001	0.0
0.003040	-0.000001	0.0
0.003250	-0.000001	0.0
0.003477	-0.000001	0.0
0.003721	-0.000001	0.0
0.003983	-0.000002	0.0
0.004266	-0.000002	0.0
0.004571	-0.000002	0.0
0.004902	-0.000003	0.0
0.005261	-0.000003	0.0
0.005651	-0.000004	0.0
0.006075	-0.000005	0.0
0.006538	-0.000005	0.0
0.007045	-0.000006	0.0
0.007600	-0.000008	0.0
0.008212	-0.000009	0.0
0.008887	-0.000010	0.0
0.009633	-0.000012	0.0
0.010463	-0.000014	0.0
0.011388	-0.000016	0.0
0.012424	-0.000019	0.0
0.013588	-0.000021	0.0
0.014903	-0.000024	0.0
0.016395	-0.000027	0.0
0.018098	-0.000030	0.0
0.020052	-0.000033	0.0
0.022310	-0.000037	0.0
0.024938	-0.000040	0.0
0.028021	-0.000043	0.0
0.031673	-0.000047	0.0
0.036047	-0.000049	0.0
0.041356	-0.000052	0.0
0.047910	-0.000054	0.0
0.056173	-0.000056	0.0
0.066893	-0.000057	0.0
0.081356	-0.000056	0.0
0.102028	-0.000054	0.0
0.134391	-0.000048	0.0
0.194306	-0.000036	0.0
0.000007	0.000000	0.0
0.000013	0.000000	0.0
0.000018	0.000000	0.0
0.000023	0.000000	0.0
0.000029	0.000000	0.0
0.000034	0.000000	0.0
0.000040	0.000000	0.0
0.000047	0.000000	0.0
0.000053	0.000000	0.0
0.000060	0.000000	0.0
0.000068	0.000000	0.0
0.000076	0.000000	0.0
0.000084	0.000000	0.0
0.000094	0.000000	0.0
0.000103	0.000000	0.0
0.000114	0.000000	0.0
0.000125	0.000000	0.0
0.000137	0.000000	0.0
0.000150	0.000000	0.0
0.000164	0.000000	0.0
0.000179	0.000000	0.0
0.000196	0.000000	0.0
0.000213	0.000000	0.0
0.000232	0.000000	0.0
0.000252	0.000000	0.0
0.000273	0.000000	0.0
0.000296	0.000000	0.0
0.000321	0.000000	0.0
0.000348	0.000000	0.0
0.000376	0.000000	0.0
0.000406	0.000000	0.0
0.000439	0.000000	0.0
0.000474	0.000000	0.0
0.000511	0.000000	0.0
0.000550	0.000000	0.0
0.000593	0.000000	0.0
0.000638	0.000000	0.0
0.000686	0.000000	0.0
0.000738	0.000000	0.0
0.000793	0.000000	0.0
0.000851	0.000000	0.0
0.000914	-0.000000	0.0
0.000980	-0.000000	0.0
0.001051	-0.000000	0.0
0.001126	-0.000000	0.0
0.001206	-0.000000	0.0
0.001292	-0.000000	0.0
0.001382	-0.000000	0.0
0.001479	-0.000000	0.0
0.001582	-0.000000	0.0
0.001692	-0.000000	0.0
0.001809	-0.000000	0.0
0.001934	-0.000000	0.0
0.002067	-0.000000	0.0
0.002208	-0.000000	0.0
0.002359	-0.000000	0.0
0.002521	-0.000000	0.0
0.002693	-0.000000	0.0
0.002877	-0.000001	0.0
0.003075	-0.000001	0.0
0.003286	-0.000001	0.0
0.003512	-0.000001	0.0
0.003755	-0.000001	0.0
0.004016	-0.000001	0.0
0.004297	-0.000002	0.0
0.004599	-0.000002	0.0
0.004926	-0.000002	0.0
0.005279	-0.000003	0.0
0.005661	-0.000004	0.0
0.006076	-0.000004	0.0
0.006527	-0.000005	0.0
0.007018	-0.000006	0.0
0.007555	-0.000007	0.0
0.008142	-0.000008	0.0
0.008787	-0.000010	0.0
0.009497	-0.000011	0.0
0.010282	-0.000013	0.0
0.011151	-0.000015	0.0
0.012118	-0.000017	0.0
0.013197	-0.000020	0.0
0.014407	-0.000022	0.0
0.015769	-0.000025	0.0
0.017309	-0.000028	0.0
0.019061	-0.000032	0.0
0.021064	-0.000035	0.0
0.023369	-0.000039	0.0
0.026041	-0.000042	0.0
0.029164	-0.000046	0.0
0.032849	-0.000049	0.0
0.037245	-0.000052	0.0
0.042562	-0.000054	0.0
0.049105	-0.000057	0.0
0.057334	-0.000058	0.0
0.067990	-0.000059	0.0
0.082356	-0.000058	0.0
0.102891	-0.000056	0.0
0.135071	-0.000050	0.0
0.194740	-0.000038	0.0
0.000008	0.000000	0.0
0.000014	0.000000	0.0
0.000019	0.000000	0.0
0.000025	0.000000	0.0
0.000031	0.000000	0.0
0.000037	0.000000	0.0
0.000044	0.000000	0.0
0.000050	0.000000	0.0
0.000058	0.000000	0.0
0.000065	0.000000	0.0
0.000073	0.000000	0.0
0.000082	0.000000	0.0
0.000091	0.000000	0.0
0.000101	0.000000	0.0
0.000112	0.000000	0.0
0.000123	0.000000	0.0
0.000135	0.000000	0.0
0.000148	0.000000	0.0
0.000162	0.000000	0.0
0.000178	0.000000	0.0
0.000194	0.000000	0.0
0.000211	0.000000	0.0
0.000230	0.000000	0.0
0.000250	0.000000	0.0
0.000272	0.000000	0.0
0.000295	0.000000	0.0
0.000320	0.000000	0.0
0.000347	0.000000	0.0
0.000375	0.000000	0.0
0.000406	0.000000	0.0
0.000438	0.000000	0.0
0.000473	0.000000	0.0
0.000511	-0.000000	0.0
0.000551	-0.000000	0.0
0.000594	-0.000000	0.0
0.000639	-0.000000	0.0
0.000688	-0.000000	0.0
0.000740	-0.000000	0.0
0.000795	-0.000000	0.0
0.000854	-0.000000	0.0
0.000917	-0.000000	0.0
0.000984	-0.000000	0.0
0.001056	-0.000000	0.0
0.001132	-0.000000	0.0
0.001213	-0.000000	0.0
0.001299	-0.000000	0.0
0.001390	-0.000000	0.0
0.001488	-0.000000	0.0
0.001592	-0.000000	0.0
0.001702	-0.000000	0.0
0.001820	-0.000000	0.0
0.001945	-0.000000	0.0
0.002079	-0.000000	0.0
0.002221	-0.000000	0.0
0.002372	-0.000000	0.0
0.002534	-0.000000	0.0
0.002706	-0.000000	0.0
0.002890	-0.000001	0.0
0.003087	-0.000001	0.0
0.003297	-0.000001	0.0
0.003522	-0.000001	0.0
0.003763	-0.000001	0.0
0.004021	-0.000001	0.0
0.004299	-0.000002	0.0
0.004597	-0.000002	0.0
0.004918	-0.000002	0.0
0.005263	-0.000003	0.0
0.005637	-0.000003	0.0
0.006040	-0.000004	0.0
0.006478	-0.000005	0.0
0.006953	-0.000005	0.0
0.007469	-0.000006	0.0
0.008033	-0.000007	0.0
0.008648	-0.000009	0.0
0.009323	-0.000010	0.0
0.010064	-0.000012	0.0
0.010881	-0.000014	0.0
0.011785	-0.000016	0.0
0.012787	-0.000018	0.0
0.013903	-0.000021	0.0
0.015150	-0.000023	0.0
0.016550	-0.000026	0.0
0.018129	-0.000030	0.0
0.019918	-0.000033	0.0
0.021958	-0.000037	0.0
0.024298	-0.000040	0.0
0.027001	-0.000044	0.0
0.030149	-0.000047	0.0
0.033852	-0.000051	0.0
0.038256	-0.000054	0.0
0.043569	-0.000056	0.0
0.050092	-0.000059	0.0
0.058281	-0.000060	0.0
0.068876	-0.000061	0.0
0.083155	-0.000060	0.0
0.103574	-0.000057	0.0
0.135606	-0.000051	0.0
0.195079	-0.000038	0.0
0.000009	-0.000000	0.0
0.000015	-0.000000	0.0
0.000021	0.000000	0.0
0.000027	0.000000	0.0
0.000033	0.000000	0.0
0.000040	0.000000	0.0
0.000047	0.000000	0.0
0.000054	0.000000	0.0
0.000062	0.000000	0.0
0.000070	0.000000	0.0
0.000079	0.000000	0.0
0.000088	0.000000	0.0
0.000098	0.000000	0.0
0.000108	0.000000	0.0
0.000120	0.000000	0.0
0.000132	0.000000	0.0
0.000145	0.000000	0.0
0.000159	0.000000	0.0
0.000174	0.000000	0.0
0.000190	0.000000	0.0
0.000208	0.000000	0.0
0.000227	0.000000	0.0
0.000247	0.000000	0.0
0.000268	0.000000	0.0
0.000291	0.000000	0.0
0.000316	-0.000000	0.0
0.000343	-0.000000	0.0
0.000371	-0.000000	0.0
0.000402	-0.000000	0.0
0.000435	-0.000000	0.0
0.000470	-0.000000	0.0
0.000507	-0.000000	0.0
0.000547	-0.000000	0.0
0.000590	-0.000000	0.0
0.000636	-0.000000	0.0
0.000685	-0.000000	0.0
0.000737	-0.000000	0.0
0.000792	-0.000000	0.0
0.000851	-0.000000	0.0
0.000914	-0.000000	0.0
0.000982	-0.000000	0.0
0.001053	-0.000000	0.0
0.001129	-0.000000	0.0
0.001210	-0.000000	0.0
0.001297	-0.000000	0.0
0.001388	-0.000000	0.0
0.001486	-0.000000	0.0
0.001590	-0.000000	0.0
0.001701	-0.000000	0.0
0.001818	-0.000000	0.0
0.001943	-0.000000	0.0
0.002077	-0.000000	0.0
0.002219	-0.000000	0.0
0.002370	-0.000000	0.0
0.002530	-0.000000	0.0
0.002702	-0.000000	0.0
0.002885	-0.000001	0.0
0.003080	-0.000001	0.0
0.003288	-0.000001	0.0
0.003511	-0.000001	0.0
0.003748	-0.000001	0.0
0.004003	-0.000001	0.0
0.004276	-0.000001	0.0
0.004568	-0.000002	0.0
0.004882	-0.000002	0.0
0.005220	-0.000002	0.0
0.005583	-0.000003	0.0
0.005975	-0.000003	0.0
0.006399	-0.000004	0.0
0.006857	-0.000005	0.0
0.007353	-0.000006	0.0
0.007893	-0.000007	0.0