# vtk DataFile Version 3.0
Header
ASCII
DATASET RECTILINEAR_GRID
DIMENSIONS 98 98 1
X_COORDINATES 98 double
0.030000 0.050000 0.070000 0.090000 0.110000 0.130000 0.150000 0.170000 0.190000 0.210000 0.230000 0.250000 0.270000 0.290000 0.310000 0.330000 0.350000 0.370000 0.390000 0.410000 0.430000 0.450000 0.470000 0.490000 0.510000 0.530000 0.550000 0.570000 0.590000 0.610000 0.630000 0.650000 0.670000 0.690000 0.710000 0.730000 0.750000 0.770000 0.790000 0.810000 0.830000 0.850000 0.870000 0.890000 0.910000 0.930000 0.950000 0.970000 0.990000 1.010000 1.030000 1.050000 1.070000 1.090000 1.110000 1.130000 1.150000 1.170000 1.190000 1.210000 1.230000 1.250000 1.270000 1.290000 1.310000 1.330000 1.350000 1.370000 1.390000 1.410000 1.430000 1.450000 1.470000 1.490000 1.510000 1.530000 1.550000 1.570000 1.590000 1.610000 1.630000 1.650000 1.670000 1.690000 1.710000 1.730000 1.750000 1.770000 1.790000 1.810000 1.830000 1.850000 1.870000 1.890000 1.910000 1.930000 1.950000 1.970000 
Y_COORDINATES 98 double
0.030000 0.050000 0.070000 0.090000 0.110000 0.130000 0.150000 0.170000 0.190000 0.210000 0.230000 0.250000 0.270000 0.290000 0.310000 0.330000 0.350000 0.370000 0.390000 0.410000 0.430000 0.450000 0.470000 0.490000 0.510000 0.530000 0.550000 0.570000 0.590000 0.610000 0.630000 0.650000 0.670000 0.690000 0.710000 0.730000 0.750000 0.770000 0.790000 0.810000 0.830000 0.850000 0.870000 0.890000 0.910000 0.930000 0.950000 0.970000 0.990000 1.010000 1.030000 1.050000 1.070000 1.090000 1.110000 1.130000 1.150000 1.170000 1.190000 1.210000 1.230000 1.250000 1.270000 1.290000 1.310000 1.330000 1.350000 1.370000 1.390000 1.410000 1.430000 1.450000 1.470000 1.490000 1.510000 1.530000 1.550000 1.570000 1.590000 1.610000 1.630000 1.650000 1.670000 1.690000 1.710000 1.730000 1.750000 1.770000 1.790000 1.810000 1.830000 1.850000 1.870000 1.890000 1.910000 1.930000 1.950000 1.970000 
Z_COORDINATES 1 double
0.0
POINT_DATA 9604
VECTORS velocity double
0.000001	0.000001	0.0
0.000001	0.000001	0.0
0.000001	0.000000	0.0
0.000000	-0.000000	0.0
0.000000	-0.000000	0.0
0.000000	-0.000000	0.0
-0.000000	-0.000001	0.0
-0.000000	-0.000001	0.0
-0.000000	-0.000001	0.0
-0.000000	-0.000001	0.0
-0.000000	-0.000001	0.0
-0.000000	-0.000001	0.0
-0.000000	-0.000001	0.0
-0.000000	-0.000001	0.0
-0.000000	-0.000001	0.0
-0.000000	-0.000001	0.0
-0.000000	-0.000001	0.0
-0.000000	-0.000001	0.0
-0.000000	-0.000001	0.0
-0.000000	-0.000001	0.0
-0.000000	-0.000001	0.0
-0.000000	-0.000001	0.0
-0.000000	-0.000001	0.0
-0.000000	-0.000001	0.0
-0.000000	-0.000001	0.0
-0.000000	-0.000001	0.0
-0.000000	-0.000001	0.0
-0.000000	-0.000001	0.0
-0.000000	-0.000001	0.0
-0.000000	-0.000001	0.0
-0.000000	-0.000001	0.0
-0.000000	-0.000001	0.0
-0.000000	-0.000001	0.0
-0.000000	-0.000001	0.0
-0.000000	-0.000001	0.0
-0.000000	-0.000001	0.0
-0.000000	-0.000001	0.0
-0.000000	-0.000001	0.0
-0.000000	-0.000001	0.0
-0.000000	-0.000001	0.0
-0.000000	-0.000001	0.0
-0.000000	-0.000001	0.0
-0.000000	-0.000001	0.0
-0.000000	-0.000001	0.0
-0.000000	-0.000001	0.0
-0.000000	-0.000001	0.0
-0.000000	-0.000001	0.0
-0.000000	-0.000001	0.0
-0.000000	-0.000001	0.0
-0.000000	-0.000001	0.0
-0.000000	-0.000001	0.0
-0.000000	-0.000001	0.0
-0.000000	-0.000001	0.0
-0.000000	-0.000001	0.0
-0.000000	-0.000001	0.0
-0.000000	-0.000001	0.0
-0.000000	-0.000001	0.0
-0.000000	-0.000001	0.0
-0.000000	-0.000001	0.0
-0.000000	-0.000001	0.0
-0.000000	-0.000001	0.0
-0.000000	-0.000001	0.0
-0.000000	-0.000001	0.0
-0.000000	-0.000001	0.0
-0.000000	-0.000001	0.0
-0.000000	-0.000001	0.0
-0.000000	-0.000001	0.0
-0.000000	-0.000001	0.0
-0.000000	-0.000001	0.0
-0.000000	-0.000001	0.0
0.000000	-0.000001	0.0
0.000001	-0.000001	0.0
0.000001	-0.000001	0.0
0.000003	-0.000001	0.0
0.000005	-0.000001	0.0
0.000009	-0.000001	0.0
0.000016	-0.000001	0.0
0.000029	-0.000001	0.0
0.000049	-0.000001	0.0
0.000082	-0.000001	0.0
0.000134	-0.000001	0.0
0.000214	-0.000000	0.0
0.000335	-0.000000	0.0
0.000516	-0.000000	0.0
0.000779	-0.000000	0.0
0.001155	0.000000	0.0
0.001686	0.000001	0.0
0.002427	0.000001	0.0
0.003449	0.000002	0.0
0.004858	0.000003	0.0
0.006804	0.000003	0.0
0.009527	0.000005	0.0
0.013425	0.000006	0.0
0.019222	0.000007	0.0
0.028345	0.000008	0.0
0.043907	0.000009	0.0
0.073613	0.000009	0.0
0.140843	0.000008	0.0
0.000001	0.000001	0.0
0.000001	0.000001	0.0
0.000001	0.000001	0.0
0.000001	0.000000	0.0
0.000000	-0.000000	0.0
0.000000	-0.000000	0.0
-0.000000	-0.000000	0.0
-0.000000	-0.000001	0.0
-0.000000	-0.000001	0.0
-0.000000	-0.000001	0.0
-0.000000	-0.000001	0.0
-0.000000	-0.000001	0.0
-0.000000	-0.000001	0.0
-0.000000	-0.000001	0.0
-0.000000	-0.000001	0.0
-0.000000	-0.000001	0.0
-0.000000	-0.000001	0.0
-0.000000	-0.000001	0.0
-0.000000	-0.000001	0.0
-0.000000	-0.000001	0.0
-0.000000	-0.000001	0.0
-0.000000	-0.000001	0.0
-0.000000	-0.000001	0.0
-0.000000	-0.000001	0.0
-0.000000	-0.000001	0.0
-0.000000	-0.000001	0.0
-0.000000	-0.000001	0.0
-0.000000	-0.000001	0.0
-0.000000	-0.000001	0.0
-0.000000	-0.000001	0.0
-0.000000	-0.000001	0.0
-0.000000	-0.000001	0.0
-0.000000	-0.000001	0.0
-0.000000	-0.000001	0.0
-0.000000	-0.000001	0.0
-0.000000	-0.000001	0.0
-0.000000	-0.000001	0.0
-0.000000	-0.000001	0.0
-0.000000	-0.000001	0.0
-0.000000	-0.000001	0.0
-0.000000	-0.000001	0.0
-0.000000	-0.000001	0.0
-0.000000	-0.000001	0.0
-0.000000	-0.000001	0.0
-0.000000	-0.000001	0.0
-0.000000	-0.000001	0.0
-0.000000	-0.000001	0.0
-0.000000	-0.000001	0.0
-0.000000	-0.000001	0.0
-0.000000	-0.000001	0.0
-0.000000	-0.000001	0.0
-0.000000	-0.000001	0.0
-0.000000	-0.000001	0.0
-0.000000	-0.000001	0.0
-0.000000	-0.000001	0.0
-0.000000	-0.000001	0.0
-0.000000	-0.000001	0.0
-0.000000	-0.000001	0.0
-0.000000	-0.000001	0.0
-0.000000	-0.000001	0.0
-0.000000	-0.000001	0.0
-0.000000	-0.000001	0.0
-0.000000	-0.000001	0.0
-0.000000	-0.000001	0.0
-0.000000	-0.000001	0.0
-0.000000	-0.000001	0.0
-0.000000	-0.000001	0.0
-0.000000	-0.000001	0.0
-0.000000	-0.000001	0.0
0.000000	-0.000001	0.0
0.000000	-0.000001	0.0
0.000001	-0.000001	0.0
0.000002	-0.000001	0.0
0.000004	-0.000001	0.0
0.000008	-0.000001	0.0
0.000015	-0.000001	0.0
0.000027	-0.000001	0.0
0.000047	-0.000001	0.0
0.000080	-0.000001	0.0
0.000133	-0.000001	0.0
0.000218	-0.000000	0.0
0.000348	-0.000000	0.0
0.000545	-0.000000	0.0
0.000837	0.000000	0.0
0.001262	0.000000	0.0
0.001869	0.000001	0.0
0.002721	0.000001	0.0
0.003903	0.000002	0.0
0.005527	0.000003	0.0
0.007744	0.000005	0.0
0.010775	0.000006	0.0
0.014950	0.000008	0.0
0.020799	0.000010	0.0
0.029222	0.000011	0.0
0.041861	0.000013	0.0
0.061947	0.000014	0.0
0.096616	0.000014	0.0
0.165500	0.000013	0.0
0.000001	0.000001	0.0
0.000001	0.000001	0.0
0.000001	0.000000	0.0
0.000000	0.000000	0.0
0.000000	-0.000000	0.0
0.000000	-0.000000	0.0
0.000000	-0.000000	0.0
-0.000000	-0.000000	0.0
-0.000000	-0.000000	0.0
-0.000000	-0.000001	0.0
-0.000000	-0.000001	0.0
-0.000000	-0.000001	0.0
-0.000000	-0.000001	0.0
-0.000000	-0.000001	0.0
-0.000000	-0.000001	0.0
-0.000000	-0.000001	0.0
-0.000000	-0.000001	0.0
-0.000000	-0.000001	0.0
-0.000000	-0.000001	0.0
-0.000000	-0.000001	0.0
-0.000000	-0.000001	0.0
-0.000000	-0.000001	0.0
-0.000000	-0.000001	0.0
-0.000000	-0.000001	0.0
-0.000000	-0.000001	0.0
-0.000000	-0.000001	0.0
-0.000000	-0.000001	0.0
-0.000000	-0.000001	0.0
-0.000000	-0.000001	0.0
-0.000000	-0.000001	0.0
-0.000000	-0.000001	0.0
-0.000000	-0.000001	0.0
-0.000000	-0.000001	0.0
-0.000000	-0.000001	0.0
-0.000000	-0.000001	0.0
-0.000000	-0.000001	0.0
-0.000000	-0.000001	0.0
-0.000000	-0.000001	0.0
-0.000000	-0.000001	0.0
-0.000000	-0.000001	0.0
-0.000000	-0.000001	0.0
-0.000000	-0.000001	0.0
-0.000000	-0.000001	0.0
-0.000000	-0.000001	0.0
-0.000000	-0.000001	0.0
-0.000000	-0.000001	0.0
-0.000000	-0.000001	0.0
-0.000000	-0.000001	0.0
-0.000000	-0.000001	0.0
-0.000000	-0.000001	0.0
-0.000000	-0.000001	0.0
-0.000000	-0.000001	0.0
-0.000000	-0.000001	0.0
-0.000000	-0.000001	0.0
-0.000000	-0.000001	0.0
-0.000000	-0.000001	0.0
-0.000000	-0.000001	0.0
-0.000000	-0.000001	0.0
-0.000000	-0.000001	0.0
-0.000000	-0.000001	0.0
-0.000000	-0.000001	0.0
-0.000000	-0.000001	0.0
-0.000000	-0.000001	0.0
-0.000000	-0.000001	0.0
-0.000000	-0.000001	0.0
-0.000000	-0.000001	0.0
-0.000000	-0.000001	0.0
-0.000000	-0.000001	0.0
-0.000000	-0.000001	0.0
0.000000	-0.000001	0.0
0.000001	-0.000001	0.0
0.000002	-0.000001	0.0
0.000003	-0.000001	0.0
0.000006	-0.000001	0.0
0.000011	-0.000001	0.0
0.000021	-0.000001	0.0
0.000037	-0.000001	0.0
0.000064	-0.000001	0.0
0.000109	-0.000000	0.0
0.000181	-0.000000	0.0
0.000295	-0.000000	0.0
0.000471	-0.000000	0.0
0.000736	0.000000	0.0
0.001128	0.000000	0.0
0.001697	0.000001	0.0
0.002506	0.000001	0.0
0.003638	0.000002	0.0
0.005197	0.000003	0.0
0.007323	0.000005	0.0
0.010199	0.000006	0.0
0.014081	0.000008	0.0
0.019340	0.000011	0.0
0.026547	0.000013	0.0
0.036627	0.000015	0.0
0.051179	0.000017	0.0
0.073208	0.000019	0.0
0.109125	0.000019	0.0
0.176559	0.000017	0.0
0.000001	0.000000	0.0
0.000001	0.000000	0.0
0.000000	0.000000	0.0
0.000000	0.000000	0.0
0.000000	-0.000000	0.0
0.000000	-0.000000	0.0
0.000000	-0.000000	0.0
-0.000000	-0.000000	0.0
-0.000000	-0.000000	0.0
-0.000000	-0.000000	0.0
-0.000000	-0.000000	0.0
-0.000000	-0.000000	0.0
-0.000000	-0.000000	0.0
-0.000000	-0.000000	0.0
-0.000000	-0.000000	0.0
-0.000000	-0.000000	0.0
-0.000000	-0.000000	0.0
-0.000000	-0.000000	0.0
-0.000000	-0.000000	0.0
-0.000000	-0.000000	0.0
-0.000000	-0.000000	0.0
-0.000000	-0.000000	0.0
-0.000000	-0.000000	0.0
-0.000000	-0.000000	0.0
-0.000000	-0.000000	0.0
-0.000000	-0.000000	0.0
-0.000000	-0.000000	0.0
-0.000000	-0.000000	0.0
-0.000000	-0.000000	0.0
-0.000000	-0.000000	0.0
-0.000000	-0.000000	0.0
-0.000000	-0.000000	0.0
-0.000000	-0.000000	0.0
-0.000000	-0.000000	0.0
-0.000000	-0.000000	0.0
-0.000000	-0.000000	0.0
-0.000000	-0.000000	0.0
-0.000000	-0.000000	0.0
-0.000000	-0.000000	0.0
-0.000000	-0.000000	0.0
-0.000000	-0.000000	0.0
-0.000000	-0.000000	0.0
-0.000000	-0.000000	0.0
-0.000000	-0.000000	0.0
-0.000000	-0.000000	0.0
-0.000000	-0.000000	0.0
-0.000000	-0.000000	0.0
-0.000000	-0.000000	0.0
-0.000000	-0.000000	0.0
-0.000000	-0.000000	0.0
-0.000000	-0.000000	0.0
-0.000000	-0.000000	0.0
-0.000000	-0.000000	0.0
-0.000000	-0.000000	0.0
-0.000000	-0.000000	0.0
-0.000000	-0.000000	0.0
-0.000000	-0.000000	0.0
-0.000000	-0.000000	0.0
-0.000000	-0.000000	0.0
-0.000000	-0.000000	0.0
-0.000000	-0.000000	0.0
-0.000000	-0.000000	0.0
-0.000000	-0.000000	0.0
-0.000000	-0.000000	0.0
-0.000000	-0.000000	0.0
-0.000000	-0.000000	0.0
-0.000000	-0.000000	0.0
-0.000000	-0.000000	0.0
0.000000	-0.000000	0.0
0.000000	-0.000000	0.0
0.000001	-0.000000	0.0
0.000002	-0.000000	0.0
0.000004	-0.000000	0.0
0.000008	-0.000000	0.0
0.000014	-0.000000	0.0
0.000026	-0.000000	0.0
0.000046	-0.000000	0.0
0.000079	-0.000000	0.0
0.000134	-0.000000	0.0
0.000223	-0.000000	0.0
0.000363	-0.000000	0.0
0.000579	-0.000000	0.0
0.000903	0.000000	0.0
0.001382	0.000001	0.0
0.002074	0.000001	0.0
0.003053	0.000002	0.0
0.004416	0.000003	0.0
0.006284	0.000004	0.0
0.008809	0.000006	0.0
0.012193	0.000008	0.0
0.016704	0.000010	0.0
0.022725	0.000013	0.0
0.030820	0.000016	0.0
0.041878	0.000019	0.0
0.057403	0.000021	0.0
0.080176	0.000022	0.0
0.116160	0.000022	0.0
0.182104	0.000019	0.0
0.000000	0.000000	0.0
0.000000	0.000000	0.0
0.000000	0.000000	0.0
0.000000	0.000000	0.0
0.000000	0.000000	0.0
0.000000	-0.000000	0.0
0.000000	-0.000000	0.0
-0.000000	-0.000000	0.0
-0.000000	-0.000000	0.0
-0.000000	-0.000000	0.0
-0.000000	-0.000000	0.0
-0.000000	-0.000000	0.0
-0.000000	-0.000000	0.0
-0.000000	-0.000000	0.0
-0.000000	-0.000000	0.0
-0.000000	-0.000000	0.0
-0.000000	-0.000000	0.0
-0.000000	-0.000000	0.0
-0.000000	-0.000000	0.0
-0.000000	-0.000000	0.0
-0.000000	-0.000000	0.0
-0.000000	-0.000000	0.0
-0.000000	-0.000000	0.0
-0.000000	-0.000000	0.0
-0.000000	-0.000000	0.0
-0.000000	-0.000000	0.0
-0.000000	-0.000000	0.0
-0.000000	-0.000000	0.0
-0.000000	-0.000000	0.0
-0.000000	-0.000000	0.0
-0.000000	-0.000000	0.0
-0.000000	-0.000000	0.0
-0.000000	-0.000000	0.0
-0.000000	-0.000000	0.0
-0.000000	-0.000000	0.0
-0.000000	-0.000000	0.0
-0.000000	-0.000000	0.0
-0.000000	-0.000000	0.0
-0.000000	-0.000000	0.0
-0.000000	-0.000000	0.0
-0.000000	-0.000000	0.0
-0.000000	-0.000000	0.0
-0.000000	-0.000000	0.0
-0.000000	-0.000000	0.0
-0.000000	-0.000000	0.0
-0.000000	-0.000000	0.0
-0.000000	-0.000000	0.0
-0.000000	-0.000000	0.0
-0.000000	-0.000000	0.0
-0.000000	-0.000000	0.0
-0.000000	-0.000000	0.0
-0.000000	-0.000000	0.0
-0.000000	-0.000000	0.0
-0.000000	-0.000000	0.0
-0.000000	-0.000000	0.0
-0.000000	-0.000000	0.0
-0.000000	-0.000000	0.0
-0.000000	-0.000000	0.0
-0.000000	-0.000000	0.0
-0.000000	-0.000000	0.0
-0.000000	-0.000000	0.0
-0.000000	-0.000000	0.0
-0.000000	-0.000000	0.0
-0.000000	-0.000000	0.0
-0.000000	-0.000000	0.0
-0.000000	-0.000000	0.0
-0.000000	-0.000000	0.0
0.000000	-0.000000	0.0
0.000000	-0.000000	0.0
0.000001	-0.000000	0.0
0.000001	-0.000000	0.0
0.000002	-0.000000	0.0
0.000005	-0.000000	0.0
0.000009	-0.000000	0.0
0.000017	-0.000000	0.0
0.000030	-0.000000	0.0
0.000053	-0.000000	0.0
0.000092	-0.000000	0.0
0.000156	-0.000000	0.0
0.000260	-0.000000	0.0
0.000422	-0.000000	0.0
0.000671	0.000000	0.0
0.001046	0.000000	0.0
0.001596	0.000001	0.0
0.002389	0.000002	0.0
0.003507	0.000002	0.0
0.005055	0.000004	0.0
0.007163	0.000005	0.0
0.009993	0.000007	0.0
0.013751	0.000009	0.0
0.018710	0.000012	0.0
0.025243	0.000015	0.0
0.033895	0.000018	0.0
0.045510	0.000021	0.0
0.061503	0.000024	0.0
0.084511	0.000025	0.0
0.120260	0.000025	0.0
0.185120	0.000022	0.0
0.000000	0.000000	0.0
0.000000	0.000000	0.0
0.000000	0.000000	0.0
0.000000	0.000000	0.0
0.000000	0.000000	0.0
0.000000	-0.000000	0.0
0.000000	-0.000000	0.0
-0.000000	-0.000000	0.0
-0.000000	-0.000000	0.0
-0.000000	-0.000000	0.0
-0.000000	-0.000000	0.0
-0.000000	-0.000000	0.0
-0.000000	-0.000000	0.0
-0.000000	-0.000000	0.0
-0.000000	-0.000000	0.0
-0.000000	-0.000000	0.0
-0.000000	-0.000000	0.0
-0.000000	-0.000000	0.0
-0.000000	-0.000000	0.0
-0.000000	-0.000000	0.0
-0.000000	-0.000000	0.0
-0.000000	-0.000000	0.0
-0.000000	-0.000000	0.0
-0.000000	-0.000000	0.0
-0.000000	-0.000000	0.0
-0.000000	-0.000000	0.0
-0.000000	-0.000000	0.0
-0.000000	-0.000000	0.0
-0.000000	-0.000000	0.0
-0.000000	-0.000000	0.0
-0.000000	-0.000000	0.0
-0.000000	-0.000000	0.0
-0.000000	-0.000000	0.0
-0.000000	-0.000000	0.0
-0.000000	-0.000000	0.0
-0.000000	-0.000000	0.0
-0.000000	-0.000000	0.0
-0.000000	-0.000000	0.0
-0.000000	-0.000000	0.0
-0.000000	-0.000000	0.0
-0.000000	-0.000000	0.0
-0.000000	-0.000000	0.0
-0.000000	-0.000000	0.0
-0.000000	-0.000000	0.0
-0.000000	-0.000000	0.0
-0.000000	-0.000000	0.0
-0.000000	-0.000000	0.0
-0.000000	-0.000000	0.0
-0.000000	-0.000000	0.0
-0.000000	-0.000000	0.0
-0.000000	-0.000000	0.0
-0.000000	-0.000000	0.0
-0.000000	-0.000000	0.0
-0.000000	-0.000000	0.0
-0.000000	-0.000000	0.0
-0.000000	-0.000000	0.0
-0.000000	-0.000000	0.0
-0.000000	-0.000000	0.0
-0.000000	-0.000000	0.0
-0.000000	-0.000000	0.0
-0.000000	-0.000000	0.0
-0.000000	-0.000000	0.0
-0.000000	-0.000000	0.0
-0.000000	-0.000000	0.0
-0.000000	-0.000000	0.0
-0.000000	-0.000000	0.0
-0.000000	-0.000000	0.0
0.000000	-0.000000	0.0
0.000000	-0.000000	0.0
0.000001	-0.000000	0.0
0.000001	-0.000000	0.0
0.000003	-0.000000	0.0
0.000005	-0.000000	0.0
0.000010	-0.000000	0.0
0.000019	-0.000000	0.0
0.000034	-0.000000	0.0
0.000060	-0.000000	0.0
0.000103	-0.000000	0.0
0.000175	-0.000000	0.0
0.000290	-0.000000	0.0
0.000471	0.000000	0.0
0.000747	0.000000	0.0
0.001162	0.000001	0.0
0.001771	0.000001	0.0
0.002644	0.000002	0.0
0.003870	0.000003	0.0
0.005561	0.000004	0.0
0.007850	0.000006	0.0
0.010905	0.000008	0.0
0.014931	0.000010	0.0
0.020197	0.000013	0.0
0.027066	0.000017	0.0
0.036058	0.000020	0.0
0.047980	0.000023	0.0
0.064188	0.000026	0.0
0.087231	0.000027	0.0
0.122718	0.000027	0.0
0.186854	0.000023	0.0
0.000000	0.000000	0.0
0.000000	0.000000	0.0
0.000000	0.000000	0.0
0.000000	0.000000	0.0
0.000000	0.000000	0.0
0.000000	-0.000000	0.0
0.000000	-0.000000	0.0
-0.000000	-0.000000	0.0
-0.000000	-0.000000	0.0
-0.000000	-0.000000	0.0
-0.000000	-0.000000	0.0
-0.000000	-0.000000	0.0
-0.000000	-0.000000	0.0
-0.000000	-0.000000	0.0
-0.000000	-0.000000	0.0
-0.000000	-0.000000	0.0
-0.000000	-0.000000	0.0
-0.000000	-0.000000	0.0
-0.000000	-0.000000	0.0
-0.000000	-0.000000	0.0
-0.000000	-0.000000	0.0
-0.000000	-0.000000	0.0
-0.000000	-0.000000	0.0
-0.000000	-0.000000	0.0
-0.000000	-0.000000	0.0
-0.000000	-0.000000	0.0
-0.000000	-0.000000	0.0
-0.000000	-0.000000	0.0
-0.000000	-0.000000	0.0
-0.000000	-0.000000	0.0
-0.000000	-0.000000	0.0
-0.000000	-0.000000	0.0
-0.000000	-0.000000	0.0
-0.000000	-0.000000	0.0
-0.000000	-0.000000	0.0
-0.000000	-0.000000	0.0
-0.000000	-0.000000	0.0
-0.000000	-0.000000	0.0
-0.000000	-0.000000	0.0
-0.000000	-0.000000	0.0
-0.000000	-0.000000	0.0
-0.000000	-0.000000	0.0
-0.000000	-0.000000	0.0
-0.000000	-0.000000	0.0
-0.000000	-0.000000	0.0
-0.000000	-0.000000	0.0
-0.000000	-0.000000	0.0
-0.000000	-0.000000	0.0
-0.000000	-0.000000	0.0
-0.000000	-0.000000	0.0
-0.000000	-0.000000	0.0
-0.000000	-0.000000	0.0
-0.000000	-0.000000	0.0
-0.000000	-0.000000	0.0
-0.000000	-0.000000	0.0
-0.000000	-0.000000	0.0
-0.000000	-0.000000	0.0
-0.000000	-0.000000	0.0
-0.000000	-0.000000	0.0
-0.000000	-0.000000	0.0
-0.000000	-0.000000	0.0
-0.000000	-0.000000	0.0
-0.000000	-0.000000	0.0
-0.000000	-0.000000	0.0
-0.000000	-0.000000	0.0
-0.000000	-0.000000	0.0
0.000000	-0.000000	0.0
0.000000	-0.000000	0.0
0.000000	-0.000000	0.0
0.000001	-0.000000	0.0
0.000002	-0.000000	0.0
0.000003	-0.000000	0.0
0.000006	-0.000000	0.0
0.000011	-0.000000	0.0
0.000020	-0.000000	0.0
0.000037	-0.000000	0.0
0.000065	-0.000000	0.0
0.000112	-0.000000	0.0
0.000190	-0.000000	0.0
0.000315	0.000000	0.0
0.000510	0.000000	0.0
0.000809	0.000000	0.0
0.001255	0.000001	0.0
0.001909	0.000001	0.0
0.002844	0.000002	0.0
0.004153	0.000003	0.0
0.005950	0.000005	0.0
0.008373	0.000006	0.0
0.011588	0.000009	0.0
0.015801	0.000011	0.0
0.021273	0.000014	0.0
0.028356	0.000018	0.0
0.037552	0.000021	0.0
0.049641	0.000025	0.0
0.065939	0.000027	0.0
0.088949	0.000029	0.0
0.124223	0.000028	0.0
0.187887	0.000024	0.0
0.000000	0.000000	0.0
0.000000	0.000000	0.0
0.000000	0.000000	0.0
0.000000	0.000000	0.0
0.000000	0.000000	0.0
0.000000	-0.000000	0.0
0.000000	-0.000000	0.0
-0.000000	-0.000000	0.0
-0.000000	-0.000000	0.0
-0.000000	-0.000000	0.0
-0.000000	-0.000000	0.0
-0.000000	-0.000000	0.0
-0.000000	-0.000000	0.0
-0.000000	-0.000000	0.0
-0.000000	-0.000000	0.0
-0.000000	-0.000000	0.0
-0.000000	-0.000000	0.0
-0.000000	-0.000000	0.0
-0.000000	-0.000000	0.0
-0.000000	-0.000000	0.0
-0.000000	-0.000000	0.0
-0.000000	-0.000000	0.0
-0.000000	-0.000000	0.0
-0.000000	-0.000000	0.0
-0.000000	-0.000000	0.0
-0.000000	-0.000000	0.0
-0.000000	-0.000000	0.0
-0.000000	-0.000000	0.0
-0.000000	-0.000000	0.0
-0.000000	-0.000000	0.0
-0.000000	-0.000000	0.0
-0.000000	-0.000000	0.0
-0.000000	-0.000000	0.0
-0.000000	-0.000000	0.0
-0.000000	-0.000000	0.0
-0.000000	-0.000000	0.0
-0.000000	-0.000000	0.0
-0.000000	-0.000000	0.0
-0.000000	-0.000000	0.0
-0.000000	-0.000000	0.0
-0.000000	-0.000000	0.0
-0.000000	-0.000000	0.0
-0.000000	-0.000000	0.0
-0.000000	-0.000000	0.0
-0.000000	-0.000000	0.0
-0.000000	-0.000000	0.0
-0.000000	-0.000000	0.0
-0.000000	-0.000000	0.0
-0.000000	-0.000000	0.0
-0.000000	-0.000000	0.0
-0.000000	-0.000000	0.0
-0.000000	-0.000000	0.0
-0.000000	-0.000000	0.0
-0.000000	-0.000000	0.0
-0.000000	-0.000000	0.0
-0.000000	-0.000000	0.0
-0.000000	-0.000000	0.0
-0.000000	-0.000000	0.0
-0.000000	-0.000000	0.0
-0.000000	-0.000000	0.0
-0.000000	-0.000000	0.0
-0.000000	-0.000000	0.0
-0.000000	-0.000000	0.0
-0.000000	-0.000000	0.0
-0.000000	-0.000000	0.0
-0.000000	-0.000000	0.0
0.000000	-0.000000	0.0
0.000000	-0.000000	0.0
0.000000	-0.000000	0.0
0.000001	-0.000000	0.0
0.000002	-0.000000	0.0
0.000003	-0.000000	0.0
0.000006	-0.000000	0.0
0.000012	-0.000000	0.0
0.000022	-0.000000	0.0
0.000039	-0.000000	0.0
0.000069	-0.000000	0.0
0.000120	-0.000000	0.0
0.000202	0.000000	0.0
0.000334	0.000000	0.0
0.000541	0.000000	0.0
0.000856	0.000001	0.0
0.001328	0.000001	0.0
0.002015	0.000002	0.0
0.002996	0.000002	0.0
0.004367	0.000003	0.0
0.006241	0.000005	0.0
0.008759	0.000007	0.0
0.012087	0.000009	0.0
0.016426	0.000012	0.0
0.022034	0.000015	0.0
0.029252	0.000019	0.0
0.038569	0.000022	0.0
0.050745	0.000026	0.0
0.067077	0.000028	0.0
0.090038	0.000030	0.0
0.125156	0.000029	0.0
0.188516	0.000025	0.0
0.000000	0.000000	0.0
0.000000	0.000000	0.0
0.000000	0.000000	0.0
0.000000	0.000000	0.0
0.000000	0.000000	0.0
0.000000	-0.000000	0.0
0.000000	-0.000000	0.0
-0.000000	-0.000000	0.0
-0.000000	-0.000000	0.0
-0.000000	-0.000000	0.0
-0.000000	-0.000000	0.0
-0.000000	-0.000000	0.0
-0.000000	-0.000000	0.0
-0.000000	-0.000000	0.0
-0.000000	-0.000000	0.0
-0.000000	-0.000000	0.0
-0.000000	-0.000000	0.0
-0.000000	-0.000000	0.0
-0.000000	-0.000000	0.0
-0.000000	-0.000000	0.0
-0.000000	-0.000000	0.0
-0.000000	-0.000000	0.0
-0.000000	-0.000000	0.0
-0.000000	-0.000000	0.0
-0.000000	-0.000000	0.0
-0.000000	-0.000000	0.0
-0.000000	-0.000000	0.0
-0.000000	-0.000000	0.0
-0.000000	-0.000000	0.0
-0.000000	-0.000000	0.0
-0.000000	-0.000000	0.0
-0.000000	-0.000000	0.0
-0.000000	-0.000000	0.0
-0.000000	-0.000000	0.0
-0.000000	-0.000000	0.0
-0.000000	-0.000000	0.0
-0.000000	-0.000000	0.0
-0.000000	-0.000000	0.0
-0.000000	-0.000000	0.0
-0.000000	-0.000000	0.0
-0.000000	-0.000000	0.0
-0.000000	-0.000000	0.0
-0.000000	-0.000000	0.0
-0.000000	-0.000000	0.0
-0.000000	-0.000000	0.0
-0.000000	-0.000000	0.0
-0.000000	-0.000000	0.0
-0.000000	-0.000000	0.0
-0.000000	-0.000000	0.0
-0.000000	-0.000000	0.0
-0.000000	-0.000000	0.0
-0.000000	-0.000000	0.0
-0.000000	-0.000000	0.0
-0.000000	-0.000000	0.0
-0.000000	-0.000000	0.0
-0.000000	-0.000000	0.0
-0.000000	-0.000000	0.0
-0.000000	-0.000000	0.0
-0.000000	-0.000000	0.0
-0.000000	-0.000000	0.0
-0.000000	-0.000000	0.0
-0.000000	-0.000000	0.0
-0.000000	-0.000000	0.0
-0.000000	-0.000000	0.0
-0.000000	-0.000000	0.0
0.000000	-0.000000	0.0
0.000000	-0.000000	0.0
0.000000	-0.000000	0.0
0.000000	-0.000000	0.0
0.000001	-0.000000	0.0
0.000002	-0.000000	0.0
0.000003	-0.000000	0.0
0.000007	-0.000000	0.0
0.000012	-0.000000	0.0
0.000023	-0.000000	0.0
0.000041	-0.000000	0.0
0.000073	-0.000000	0.0
0.000125	0.000000	0.0
0.000211	0.000000	0.0
0.000349	0.000000	0.0
0.000564	0.000000	0.0
0.000892	0.000001	0.0
0.001382	0.000001	0.0
0.002095	0.000002	0.0
0.003110	0.000002	0.0
0.004524	0.000004	0.0
0.006454	0.000005	0.0
0.009038	0.000007	0.0
0.012442	0.000009	0.0
0.016866	0.000012	0.0
0.022561	0.000016	0.0
0.029863	0.000019	0.0
0.039250	0.000023	0.0
0.051473	0.000026	0.0
0.067812	0.000029	0.0
0.090730	0.000031	0.0
0.125738	0.000030	0.0
0.188903	0.000025	0.0
0.000000	0.000000	0.0
0.000000	0.000000	0.0
0.000000	0.000000	0.0
0.000000	0.000000	0.0
0.000000	0.000000	0.0
0.000000	-0.000000	0.0
0.000000	-0.000000	0.0
-0.000000	-0.000000	0.0
-0.000000	-0.000000	0.0
-0.000000	-0.000000	0.0
-0.000000	-0.000000	0.0
-0.000000	-0.000000	0.0
-0.000000	-0.000000	0.0
-0.000000	-0.000000	0.0
-0.000000	-0.000000	0.0
-0.000000	-0.000000	0.0
-0.000000	-0.000000	0.0
-0.000000	-0.000000	0.0
-0.000000	-0.000000	0.0
-0.000000	-0.000000	0.0
-0.000000	-0.000000	0.0
-0.000000	-0.000000	0.0
-0.000000	-0.000000	0.0
-0.000000	-0.000000	0.0
-0.000000	-0.000000	0.0
-0.000000	-0.000000	0.0
-0.000000	-0.000000	0.0
-0.000000	-0.000000	0.0
-0.000000	-0.000000	0.0
-0.000000	-0.000000	0.0
-0.000000	-0.000000	0.0
-0.000000	-0.000000	0.0
-0.000000	-0.000000	0.0
-0.000000	-0.000000	0.0
-0.000000	-0.000000	0.0
-0.000000	-0.000000	0.0
-0.000000	-0.000000	0.0
-0.000000	-0.000000	0.0
-0.000000	-0.000000	0.0
-0.000000	-0.000000	0.0
-0.000000	-0.000000	0.0
-0.000000	-0.000000	0.0
-0.000000	-0.000000	0.0
-0.000000	-0.000000	0.0
-0.000000	-0.000000	0.0
-0.000000	-0.000000	0.0
-0.000000	-0.000000	0.0
-0.000000	-0.000000	0.0
-0.000000	-0.000000	0.0
-0.000000	-0.000000	0.0
-0.000000	-0.000000	0.0
-0.000000	-0.000000	0.0
-0.000000	-0.000000	0.0
-0.000000	-0.000000	0.0
-0.000000	-0.000000	0.0
-0.000000	-0.000000	0.0
-0.000000	-0.000000	0.0
-0.000000	-0.000000	0.0
-0.000000	-0.000000	0.0
-0.000000	-0.000000	0.0
-0.000000	-0.000000	0.0
-0.000000	-0.000000	0.0
-0.000000	-0.000000	0.0
-0.000000	-0.000000	0.0
0.000000	-0.000000	0.0
0.000000	-0.000000	0.0
0.000000	-0.000000	0.0
0.000000	-0.000000	0.0
0.000000	-0.000000	0.0
0.000001	-0.000000	0.0
0.000002	-0.000000	0.0
0.000004	-0.000000	0.0
0.000007	-0.000000	0.0
0.000013	-0.000000	0.0
0.000024	-0.000000	0.0
0.000043	-0.000000	0.0
0.000075	0.000000	0.0
0.000129	0.000000	0.0
0.000218	0.000000	0.0
0.000360	0.000000	0.0
0.000581	0.000000	0.0
0.000919	0.000001	0.0
0.001422	0.000001	0.0
0.002153	0.000002	0.0
0.003192	0.000003	0.0
0.004637	0.000004	0.0
0.006605	0.000005	0.0
0.009235	0.000007	0.0
0.012690	0.000010	0.0
0.017169	0.000013	0.0
0.022920	0.000016	0.0
0.030273	0.000020	0.0
0.039701	0.000023	0.0
0.051946	0.000027	0.0
0.068284	0.000030	0.0
0.091167	0.000031	0.0
0.126102	0.000030	0.0
0.189143	0.000026	0.0
0.000000	0.000000	0.0
0.000000	0.000000	0.0
0.000000	0.000000	0.0
0.000000	0.000000	0.0
0.000000	0.000000	0.0
0.000000	-0.000000	0.0
0.000000	-0.000000	0.0
-0.000000	-0.000000	0.0
-0.000000	-0.000000	0.0
-0.000000	-0.000000	0.0
-0.000000	-0.000000	0.0
-0.000000	-0.000000	0.0
-0.000000	-0.000000	0.0
-0.000000	-0.000000	0.0
-0.000000	-0.000000	0.0
-0.000000	-0.000000	0.0
-0.000000	-0.000000	0.0
-0.000000	-0.000000	0.0
-0.000000	-0.000000	0.0
-0.000000	-0.000000	0.0
-0.000000	-0.000000	0.0
-0.000000	-0.000000	0.0
-0.000000	-0.000000	0.0
-0.000000	-0.000000	0.0
-0.000000	-0.000000	0.0
-0.000000	-0.000000	0.0
-0.000000	-0.000000	0.0
-0.000000	-0.000000	0.0
-0.000000	-0.000000	0.0
-0.000000	-0.000000	0.0
-0.000000	-0.000000	0.0
-0.000000	-0.000000	0.0
-0.000000	-0.000000	0.0
-0.000000	-0.000000	0.0
-0.000000	-0.000000	0.0
-0.000000	-0.000000	0.0
-0.000000	-0.000000	0.0
-0.000000	-0.000000	0.0
-0.000000	-0.000000	0.0
-0.000000	-0.000000	0.0
-0.000000	-0.000000	0.0
-0.000000	-0.000000	0.0
-0.000000	-0.000000	0.0
-0.000000	-0.000000	0.0
-0.000000	-0.000000	0.0
-0.000000	-0.000000	0.0
-0.000000	-0.000000	0.0
-0.000000	-0.000000	0.0
-0.000000	-0.000000	0.0
-0.000000	-0.000000	0.0
-0.000000	-0.000000	0.0
-0.000000	-0.000000	0.0
-0.000000	-0.000000	0.0
-0.000000	-0.000000	0.0
-0.000000	-0.000000	0.0
-0.000000	-0.000000	0.0
-0.000000	-0.000000	0.0
-0.000000	-0.000000	0.0
-0.000000	-0.000000	0.0
-0.000000	-0.000000	0.0
-0.000000	-0.000000	0.0
-0.000000	-0.000000	0.0
-0.000000	-0.000000	0.0
0.000000	-0.000000	0.0
0.000000	-0.000000	0.0
0.000000	-0.000000	0.0
0.000000	-0.000000	0.0
0.000000	-0.000000	0.0
0.000000	-0.000000	0.0
0.000001	-0.000000	0.0
0.000002	-0.000000	0.0
0.000004	-0.000000	0.0
0.000007	-0.000000	0.0
0.000013	-0.000000	0.0
0.000024	-0.000000	0.0
0.000044	0.000000	0.0
0.000077	0.000000	0.0
0.000132	0.000000	0.0
0.000223	0.000000	0.0
0.000368	0.000000	0.0
0.000594	0.000000	0.0
0.000938	0.000001	0.0
0.001450	0.000001	0.0
0.002194	0.000002	0.0
0.003250	0.000003	0.0
0.004716	0.000004	0.0
0.006710	0.000005	0.0
0.009370	0.000007	0.0
0.012859	0.000010	0.0
0.017374	0.000013	0.0
0.023160	0.000016	0.0
0.030544	0.000020	0.0
0.039995	0.000024	0.0
0.052252	0.000027	0.0
0.068584	0.000030	0.0
0.091443	0.000031	0.0
0.126329	0.000030	0.0
0.189292	0.000026	0.0
0.000000	0.000000	0.0
0.000000	0.000000	0.0
0.000000	0.000000	0.0
0.000000	0.000000	0.0
0.000000	0.000000	0.0
0.000000	-0.000000	0.0
0.000000	-0.000000	0.0
-0.000000	-0.000000	0.0
-0.000000	-0.000000	0.0
-0.000000	-0.000000	0.0
-0.000000	-0.000000	0.0
-0.000000	-0.000000	0.0
-0.000000	-0.000000	0.0
-0.000000	-0.000000	0.0
-0.000000	-0.000000	0.0
-0.000000	-0.000000	0.0
-0.000000	-0.000000	0.0
-0.000000	-0.000000	0.0
-0.000000	-0.000000	0.0
-0.000000	-0.000000	0.0
-0.000000	-0.000000	0.0
-0.000000	-0.000000	0.0
-0.000000	-0.000000	0.0
-0.000000	-0.000000	0.0
-0.000000	-0.000000	0.0
-0.000000	-0.000000	0.0
-0.000000	-0.000000	0.0
-0.000000	-0.000000	0.0
-0.000000	-0.000000	0.0
-0.000000	-0.000000	0.0
-0.000000	-0.000000	0.0
-0.000000	-0.000000	0.0
-0.000000	-0.000000	0.0
-0.000000	-0.000000	0.0
-0.000000	-0.000000	0.0
-0.000000	-0.000000	0.0
-0.000000	-0.000000	0.0
-0.000000	-0.000000	0.0
-0.000000	-0.000000	0.0
-0.000000	-0.000000	0.0
-0.000000	-0.000000	0.0
-0.000000	-0.000000	0.0
-0.000000	-0.000000	0.0
-0.000000	-0.000000	0.0
-0.000000	-0.000000	0.0
-0.000000	-0.000000	0.0
-0.000000	-0.000000	0.0
-0.000000	-0.000000	0.0
-0.000000	-0.000000	0.0
-0.000000	-0.000000	0.0
-0.000000	-0.000000	0.0
-0.000000	-0.000000	0.0
-0.000000	-0.000000	0.0
-0.000000	-0.000000	0.0
-0.000000	-0.000000	0.0
-0.000000	-0.000000	0.0
-0.000000	-0.000000	0.0
-0.000000	-0.000000	0.0
-0.000000	-0.000000	0.0
-0.000000	-0.000000	0.0
-0.000000	-0.000000	0.0
-0.000000	-0.000000	0.0
-0.000000	-0.000000	0.0
0.000000	-0.000000	0.0
0.000000	-0.000000	0.0
0.000000	-0.000000	0.0
0.000000	-0.000000	0.0
0.000000	-0.000000	0.0
0.000000	-0.000000	0.0
0.000001	-0.000000	0.0
0.000002	-0.000000	0.0
0.000004	-0.000000	0.0
0.000007	-0.000000	0.0
0.000013	-0.000000	0.0
0.000025	0.000000	0.0
0.000044	0.000000	0.0
0.000078	0.000000	0.0
0.000135	0.000000	0.0
0.000227	0.000000	0.0
0.000374	0.000000	0.0
0.000603	0.000001	0.0
0.000952	0.000001	0.0
0.001470	0.000001	0.0
0.002223	0.000002	0.0
0.003290	0.000003	0.0
0.004770	0.000004	0.0
0.006782	0.000005	0.0
0.009461	0.000008	0.0
0.012972	0.000010	0.0
0.017510	0.000013	0.0
0.023317	0.000016	0.0
0.030719	0.000020	0.0
0.040184	0.000024	0.0
0.052446	0.000027	0.0
0.068774	0.000030	0.0
0.091614	0.000032	0.0
0.126469	0.000031	0.0
0.189383	0.000026	0.0
0.000000	0.000000	0.0
0.000000	0.000000	0.0
0.000000	0.000000	0.0
0.000000	0.000000	0.0
0.000000	0.000000	0.0
0.000000	-0.000000	0.0
0.000000	-0.000000	0.0
0.000000	-0.000000	0.0
-0.000000	-0.000000	0.0
-0.000000	-0.000000	0.0
-0.000000	-0.000000	0.0
-0.000000	-0.000000	0.0
-0.000000	-0.000000	0.0
-0.000000	-0.000000	0.0
-0.000000	-0.000000	0.0
-0.000000	-0.000000	0.0
-0.000000	-0.000000	0.0
-0.000000	-0.000000	0.0
-0.000000	-0.000000	0.0
-0.000000	-0.000000	0.0
-0.000000	-0.000000	0.0
-0.000000	-0.000000	0.0
-0.000000	-0.000000	0.0