# vtk DataFile Version 3.0
Header
ASCII
DATASET RECTILINEAR_GRID
DIMENSIONS 98 98 1
X_COORDINATES 98 double
0.030000 0.050000 0.070000 0.090000 0.110000 0.130000 0.150000 0.170000 0.190000 0.210000 0.230000 0.250000 0.270000 0.290000 0.310000 0.330000 0.350000 0.370000 0.390000 0.410000 0.430000 0.450000 0.470000 0.490000 0.510000 0.530000 0.550000 0.570000 0.590000 0.610000 0.630000 0.650000 0.670000 0.690000 0.710000 0.730000 0.750000 0.770000 0.790000 0.810000 0.830000 0.850000 0.870000 0.890000 0.910000 0.930000 0.950000 0.970000 0.990000 1.010000 1.030000 1.050000 1.070000 1.090000 1.110000 1.130000 1.150000 1.170000 1.190000 1.210000 1.230000 1.250000 1.270000 1.290000 1.310000 1.330000 1.350000 1.370000 1.390000 1.410000 1.430000 1.450000 1.470000 1.490000 1.510000 1.530000 1.550000 1.570000 1.590000 1.610000 1.630000 1.650000 1.670000 1.690000 1.710000 1.730000 1.750000 1.770000 1.790000 1.810000 1.830000 1.850000 1.870000 1.890000 1.910000 1.930000 1.950000 1.970000 
Y_COORDINATES 98 double
0.030000 0.050000 0.070000 0.090000 0.110000 0.130000 0.150000 0.170000 0.190000 0.210000 0.230000 0.250000 0.270000 0.290000 0.310000 0.330000 0.350000 0.370000 0.390000 0.410000 0.430000 0.450000 0.470000 0.490000 0.510000 0.530000 0.550000 0.570000 0.590000 0.610000 0.630000 0.650000 0.670000 0.690000 0.710000 0.730000 0.750000 0.770000 0.790000 0.810000 0.830000 0.850000 0.870000 0.890000 0.910000 0.930000 0.950000 0.970000 0.990000 1.010000 1.030000 1.050000 1.070000 1.090000 1.110000 1.130000 1.150000 1.170000 1.190000 1.210000 1.230000 1.250000 1.270000 1.290000 1.310000 1.330000 1.350000 1.370000 1.390000 1.410000 1.430000 1.450000 1.470000 1.490000 1.510000 1.530000 1.550000 1.570000 1.590000 1.610000 1.630000 1.650000 1.670000 1.690000 1.710000 1.730000 1.750000 1.770000 1.790000 1.810000 1.830000 1.850000 1.870000 1.890000 1.910000 1.930000 1.950000 1.970000 
Z_COORDINATES 1 double
0.0
POINT_DATA 9604
VECTORS velocity double
0.000039	0.000037	0.0
0.000016	0.000009	0.0
0.000002	-0.000001	0.0
-0.000001	-0.000003	0.0
-0.000001	-0.000003	0.0
-0.000001	-0.000003	0.0
-0.000001	-0.000003	0.0
-0.000002	-0.000003	0.0
-0.000002	-0.000003	0.0
-0.000002	-0.000003	0.0
-0.000002	-0.000003	0.0
-0.000002	-0.000003	0.0
-0.000002	-0.000003	0.0
-0.000002	-0.000003	0.0
-0.000002	-0.000003	0.0
-0.000002	-0.000003	0.0
-0.000002	-0.000003	0.0
-0.000002	-0.000003	0.0
-0.000002	-0.000003	0.0
-0.000002	-0.000003	0.0
-0.000002	-0.000003	0.0
-0.000002	-0.000003	0.0
-0.000002	-0.000003	0.0
-0.000002	-0.000003	0.0
-0.000002	-0.000003	0.0
-0.000002	-0.000003	0.0
-0.000002	-0.000003	0.0
-0.000002	-0.000003	0.0
-0.000002	-0.000003	0.0
-0.000002	-0.000003	0.0
-0.000002	-0.000003	0.0
-0.000002	-0.000003	0.0
-0.000002	-0.000003	0.0
-0.000002	-0.000003	0.0
-0.000002	-0.000003	0.0
-0.000002	-0.000003	0.0
-0.000002	-0.000003	0.0
-0.000002	-0.000003	0.0
-0.000002	-0.000003	0.0
-0.000002	-0.000003	0.0
-0.000002	-0.000003	0.0
-0.000002	-0.000003	0.0
-0.000002	-0.000003	0.0
-0.000002	-0.000003	0.0
-0.000002	-0.000003	0.0
-0.000002	-0.000003	0.0
-0.000002	-0.000003	0.0
-0.000002	-0.000003	0.0
-0.000002	-0.000003	0.0
-0.000002	-0.000003	0.0
-0.000002	-0.000003	0.0
-0.000002	-0.000003	0.0
-0.000002	-0.000003	0.0
-0.000002	-0.000003	0.0
-0.000002	-0.000003	0.0
-0.000002	-0.000003	0.0
-0.000002	-0.000003	0.0
-0.000002	-0.000003	0.0
-0.000002	-0.000003	0.0
-0.000002	-0.000003	0.0
-0.000002	-0.000003	0.0
-0.000002	-0.000003	0.0
-0.000002	-0.000003	0.0
-0.000002	-0.000003	0.0
-0.000002	-0.000003	0.0
-0.000002	-0.000003	0.0
-0.000002	-0.000003	0.0
-0.000002	-0.000003	0.0
-0.000002	-0.000003	0.0
-0.000002	-0.000003	0.0
-0.000002	-0.000003	0.0
-0.000002	-0.000003	0.0
-0.000001	-0.000003	0.0
-0.000001	-0.000003	0.0
-0.000001	-0.000003	0.0
-0.000001	-0.000003	0.0
-0.000000	-0.000003	0.0
0.000001	-0.000003	0.0
0.000004	-0.000003	0.0
0.000011	-0.000003	0.0
0.000023	-0.000003	0.0
0.000045	-0.000003	0.0
0.000086	-0.000003	0.0
0.000158	-0.000003	0.0
0.000281	-0.000003	0.0
0.000486	-0.000003	0.0
0.000815	-0.000003	0.0
0.001333	-0.000003	0.0
0.002127	-0.000002	0.0
0.003319	-0.000002	0.0
0.005084	-0.000001	0.0
0.007686	0.000001	0.0
0.011544	0.000003	0.0
0.017398	0.000006	0.0
0.026682	0.000011	0.0
0.042505	0.000019	0.0
0.072563	0.000030	0.0
0.140220	0.000039	0.0
0.000012	0.000016	0.0
0.000004	0.000003	0.0
0.000001	-0.000000	0.0
-0.000000	-0.000001	0.0
-0.000000	-0.000001	0.0
-0.000000	-0.000002	0.0
-0.000000	-0.000002	0.0
-0.000000	-0.000002	0.0
-0.000000	-0.000002	0.0
-0.000000	-0.000002	0.0
-0.000000	-0.000002	0.0
-0.000000	-0.000002	0.0
-0.000000	-0.000002	0.0
-0.000000	-0.000002	0.0
-0.000000	-0.000002	0.0
-0.000000	-0.000002	0.0
-0.000000	-0.000002	0.0
-0.000000	-0.000002	0.0
-0.000000	-0.000002	0.0
-0.000000	-0.000002	0.0
-0.000000	-0.000002	0.0
-0.000000	-0.000002	0.0
-0.000000	-0.000002	0.0
-0.000000	-0.000002	0.0
-0.000000	-0.000002	0.0
-0.000000	-0.000002	0.0
-0.000000	-0.000002	0.0
-0.000000	-0.000002	0.0
-0.000000	-0.000002	0.0
-0.000000	-0.000002	0.0
-0.000000	-0.000002	0.0
-0.000000	-0.000002	0.0
-0.000000	-0.000002	0.0
-0.000000	-0.000002	0.0
-0.000000	-0.000002	0.0
-0.000000	-0.000002	0.0
-0.000000	-0.000002	0.0
-0.000000	-0.000002	0.0
-0.000000	-0.000002	0.0
-0.000000	-0.000002	0.0
-0.000000	-0.000002	0.0
-0.000000	-0.000002	0.0
-0.000000	-0.000002	0.0
-0.000000	-0.000002	0.0
-0.000000	-0.000002	0.0
-0.000000	-0.000002	0.0
-0.000000	-0.000002	0.0
-0.000000	-0.000002	0.0
-0.000000	-0.000002	0.0
-0.000000	-0.000002	0.0
-0.000000	-0.000002	0.0
-0.000000	-0.000002	0.0
-0.000000	-0.000002	0.0
-0.000000	-0.000002	0.0
-0.000000	-0.000002	0.0
-0.000000	-0.000002	0.0
-0.000000	-0.000002	0.0
-0.000000	-0.000002	0.0
-0.000000	-0.000002	0.0
-0.000000	-0.000002	0.0
-0.000000	-0.000002	0.0
-0.000000	-0.000002	0.0
-0.000000	-0.000002	0.0
-0.000000	-0.000002	0.0
-0.000000	-0.000002	0.0
-0.000000	-0.000002	0.0
-0.000000	-0.000002	0.0
-0.000000	-0.000002	0.0
-0.000000	-0.000002	0.0
-0.000000	-0.000002	0.0
-0.000000	-0.000002	0.0
-0.000000	-0.000002	0.0
-0.000000	-0.000002	0.0
-0.000000	-0.000002	0.0
-0.000000	-0.000002	0.0
0.000000	-0.000002	0.0
0.000002	-0.000002	0.0
0.000004	-0.000002	0.0
0.000009	-0.000002	0.0
0.000019	-0.000002	0.0
0.000038	-0.000002	0.0
0.000075	-0.000002	0.0
0.000140	-0.000001	0.0
0.000256	-0.000001	0.0
0.000454	-0.000001	0.0
0.000782	-0.000001	0.0
0.001309	-0.000001	0.0
0.002132	-0.000000	0.0
0.003387	0.000000	0.0
0.005257	0.000002	0.0
0.007999	0.000003	0.0
0.011982	0.000006	0.0
0.017767	0.000009	0.0
0.026280	0.000014	0.0
0.039171	0.000021	0.0
0.059666	0.000033	0.0
0.094884	0.000049	0.0
0.164449	0.000059	0.0
0.000002	0.000004	0.0
0.000001	0.000001	0.0
0.000000	0.000000	0.0
0.000000	-0.000000	0.0
-0.000000	-0.000000	0.0
-0.000000	-0.000000	0.0
-0.000000	-0.000000	0.0
-0.000000	-0.000000	0.0
-0.000000	-0.000000	0.0
-0.000000	-0.000000	0.0
-0.000000	-0.000000	0.0
-0.000000	-0.000000	0.0
-0.000000	-0.000000	0.0
-0.000000	-0.000000	0.0
-0.000000	-0.000000	0.0
-0.000000	-0.000000	0.0
-0.000000	-0.000000	0.0
-0.000000	-0.000000	0.0
-0.000000	-0.000000	0.0
-0.000000	-0.000000	0.0
-0.000000	-0.000000	0.0
-0.000000	-0.000000	0.0
-0.000000	-0.000000	0.0
-0.000000	-0.000000	0.0
-0.000000	-0.000000	0.0
-0.000000	-0.000000	0.0
-0.000000	-0.000000	0.0
-0.000000	-0.000000	0.0
-0.000000	-0.000000	0.0
-0.000000	-0.000000	0.0
-0.000000	-0.000000	0.0
-0.000000	-0.000000	0.0
-0.000000	-0.000000	0.0
-0.000000	-0.000000	0.0
-0.000000	-0.000000	0.0
-0.000000	-0.000000	0.0
-0.000000	-0.000000	0.0
-0.000000	-0.000000	0.0
-0.000000	-0.000000	0.0
-0.000000	-0.000000	0.0
-0.000000	-0.000000	0.0
-0.000000	-0.000000	0.0
-0.000000	-0.000000	0.0
-0.000000	-0.000000	0.0
-0.000000	-0.000000	0.0
-0.000000	-0.000000	0.0
-0.000000	-0.000000	0.0
-0.000000	-0.000000	0.0
-0.000000	-0.000000	0.0
-0.000000	-0.000000	0.0
-0.000000	-0.000000	0.0
-0.000000	-0.000000	0.0
-0.000000	-0.000000	0.0
-0.000000	-0.000000	0.0
-0.000000	-0.000000	0.0
-0.000000	-0.000000	0.0
-0.000000	-0.000000	0.0
-0.000000	-0.000000	0.0
-0.000000	-0.000000	0.0
-0.000000	-0.000000	0.0
-0.000000	-0.000000	0.0
-0.000000	-0.000000	0.0
-0.000000	-0.000000	0.0
-0.000000	-0.000000	0.0
-0.000000	-0.000000	0.0
-0.000000	-0.000000	0.0
-0.000000	-0.000000	0.0
-0.000000	-0.000000	0.0
-0.000000	-0.000000	0.0
-0.000000	-0.000000	0.0
-0.000000	-0.000000	0.0
-0.000000	-0.000000	0.0
-0.000000	-0.000000	0.0
0.000000	-0.000000	0.0
0.000000	-0.000000	0.0
0.000001	-0.000000	0.0
0.000003	-0.000000	0.0
0.000006	-0.000000	0.0
0.000013	-0.000000	0.0
0.000026	-0.000000	0.0
0.000052	-0.000000	0.0
0.000100	-0.000000	0.0
0.000188	-0.000000	0.0
0.000342	-0.000000	0.0
0.000605	-0.000000	0.0
0.001039	0.000000	0.0
0.001733	0.000001	0.0
0.002812	0.000001	0.0
0.004446	0.000002	0.0
0.006859	0.000004	0.0
0.010357	0.000006	0.0
0.015361	0.000009	0.0
0.022483	0.000014	0.0
0.032677	0.000020	0.0
0.047556	0.000029	0.0
0.070116	0.000042	0.0
0.106749	0.000060	0.0
0.175095	0.000071	0.0
0.000000	0.000001	0.0
0.000000	0.000000	0.0
0.000000	0.000000	0.0
0.000000	-0.000000	0.0
0.000000	-0.000000	0.0
-0.000000	-0.000000	0.0
-0.000000	-0.000000	0.0
-0.000000	-0.000000	0.0
-0.000000	-0.000000	0.0
-0.000000	-0.000000	0.0
-0.000000	-0.000000	0.0
-0.000000	-0.000000	0.0
-0.000000	-0.000000	0.0
-0.000000	-0.000000	0.0
-0.000000	-0.000000	0.0
-0.000000	-0.000000	0.0
-0.000000	-0.000000	0.0
-0.000000	-0.000000	0.0
-0.000000	-0.000000	0.0
-0.000000	-0.000000	0.0
-0.000000	-0.000000	0.0
-0.000000	-0.000000	0.0
-0.000000	-0.000000	0.0
-0.000000	-0.000000	0.0
-0.000000	-0.000000	0.0
-0.000000	-0.000000	0.0
-0.000000	-0.000000	0.0
-0.000000	-0.000000	0.0
-0.000000	-0.000000	0.0
-0.000000	-0.000000	0.0
-0.000000	-0.000000	0.0
-0.000000	-0.000000	0.0
-0.000000	-0.000000	0.0
-0.000000	-0.000000	0.0
-0.000000	-0.000000	0.0
-0.000000	-0.000000	0.0
-0.000000	-0.000000	0.0
-0.000000	-0.000000	0.0
-0.000000	-0.000000	0.0
-0.000000	-0.000000	0.0
-0.000000	-0.000000	0.0
-0.000000	-0.000000	0.0
-0.000000	-0.000000	0.0
-0.000000	-0.000000	0.0
-0.000000	-0.000000	0.0
-0.000000	-0.000000	0.0
-0.000000	-0.000000	0.0
-0.000000	-0.000000	0.0
-0.000000	-0.000000	0.0
-0.000000	-0.000000	0.0
-0.000000	-0.000000	0.0
-0.000000	-0.000000	0.0
-0.000000	-0.000000	0.0
-0.000000	-0.000000	0.0
-0.000000	-0.000000	0.0
-0.000000	-0.000000	0.0
-0.000000	-0.000000	0.0
-0.000000	-0.000000	0.0
-0.000000	-0.000000	0.0
-0.000000	-0.000000	0.0
-0.000000	-0.000000	0.0
-0.000000	-0.000000	0.0
-0.000000	-0.000000	0.0
-0.000000	-0.000000	0.0
-0.000000	-0.000000	0.0
-0.000000	-0.000000	0.0
-0.000000	-0.000000	0.0
-0.000000	-0.000000	0.0
-0.000000	-0.000000	0.0
-0.000000	-0.000000	0.0
-0.000000	-0.000000	0.0
0.000000	-0.000000	0.0
0.000000	-0.000000	0.0
0.000000	-0.000000	0.0
0.000001	-0.000000	0.0
0.000002	-0.000000	0.0
0.000003	-0.000000	0.0
0.000007	-0.000000	0.0
0.000016	-0.000000	0.0
0.000032	-0.000000	0.0
0.000063	-0.000000	0.0
0.000122	-0.000000	0.0
0.000228	0.000000	0.0
0.000414	0.000000	0.0
0.000730	0.000000	0.0
0.001250	0.000001	0.0
0.002079	0.000001	0.0
0.003361	0.000002	0.0
0.005287	0.000003	0.0
0.008109	0.000005	0.0
0.012156	0.000008	0.0
0.017865	0.000011	0.0
0.025854	0.000017	0.0
0.037045	0.000024	0.0
0.052954	0.000034	0.0
0.076357	0.000048	0.0
0.113201	0.000066	0.0
0.180263	0.000077	0.0
0.000000	0.000000	0.0
0.000000	0.000000	0.0
0.000000	0.000000	0.0
0.000000	0.000000	0.0
0.000000	-0.000000	0.0
-0.000000	-0.000000	0.0
-0.000000	-0.000000	0.0
-0.000000	-0.000000	0.0
-0.000000	-0.000000	0.0
-0.000000	-0.000000	0.0
-0.000000	-0.000000	0.0
-0.000000	-0.000000	0.0
-0.000000	-0.000000	0.0
-0.000000	-0.000000	0.0
-0.000000	-0.000000	0.0
-0.000000	-0.000000	0.0
-0.000000	-0.000000	0.0
-0.000000	-0.000000	0.0
-0.000000	-0.000000	0.0
-0.000000	-0.000000	0.0
-0.000000	-0.000000	0.0
-0.000000	-0.000000	0.0
-0.000000	-0.000000	0.0
-0.000000	-0.000000	0.0
-0.000000	-0.000000	0.0
-0.000000	-0.000000	0.0
-0.000000	-0.000000	0.0
-0.000000	-0.000000	0.0
-0.000000	-0.000000	0.0
-0.000000	-0.000000	0.0
-0.000000	-0.000000	0.0
-0.000000	-0.000000	0.0
-0.000000	-0.000000	0.0
-0.000000	-0.000000	0.0
-0.000000	-0.000000	0.0
-0.000000	-0.000000	0.0
-0.000000	-0.000000	0.0
-0.000000	-0.000000	0.0
-0.000000	-0.000000	0.0
-0.000000	-0.000000	0.0
-0.000000	-0.000000	0.0
-0.000000	-0.000000	0.0
-0.000000	-0.000000	0.0
-0.000000	-0.000000	0.0
-0.000000	-0.000000	0.0
-0.000000	-0.000000	0.0
-0.000000	-0.000000	0.0
-0.000000	-0.000000	0.0
-0.000000	-0.000000	0.0
-0.000000	-0.000000	0.0
-0.000000	-0.000000	0.0
-0.000000	-0.000000	0.0
-0.000000	-0.000000	0.0
-0.000000	-0.000000	0.0
-0.000000	-0.000000	0.0
-0.000000	-0.000000	0.0
-0.000000	-0.000000	0.0
-0.000000	-0.000000	0.0
-0.000000	-0.000000	0.0
-0.000000	-0.000000	0.0
-0.000000	-0.000000	0.0
-0.000000	-0.000000	0.0
-0.000000	-0.000000	0.0
-0.000000	-0.000000	0.0
-0.000000	-0.000000	0.0
-0.000000	-0.000000	0.0
-0.000000	-0.000000	0.0
-0.000000	-0.000000	0.0
-0.000000	-0.000000	0.0
-0.000000	-0.000000	0.0
0.000000	-0.000000	0.0
0.000000	-0.000000	0.0
0.000000	-0.000000	0.0
0.000000	-0.000000	0.0
0.000001	-0.000000	0.0
0.000002	-0.000000	0.0
0.000004	-0.000000	0.0
0.000009	-0.000000	0.0
0.000018	-0.000000	0.0
0.000037	-0.000000	0.0
0.000072	0.000000	0.0
0.000139	0.000000	0.0
0.000260	0.000000	0.0
0.000472	0.000000	0.0
0.000830	0.000001	0.0
0.001417	0.000001	0.0
0.002349	0.000002	0.0
0.003782	0.000003	0.0
0.005924	0.000004	0.0
0.009038	0.000006	0.0
0.013463	0.000009	0.0
0.019638	0.000013	0.0
0.028163	0.000019	0.0
0.039921	0.000026	0.0
0.056344	0.000037	0.0
0.080062	0.000051	0.0
0.116793	0.000069	0.0
0.182949	0.000080	0.0
0.000000	0.000000	0.0
0.000000	0.000000	0.0
0.000000	0.000000	0.0
0.000000	0.000000	0.0
0.000000	-0.000000	0.0
-0.000000	-0.000000	0.0
-0.000000	-0.000000	0.0
-0.000000	-0.000000	0.0
-0.000000	-0.000000	0.0
-0.000000	-0.000000	0.0
-0.000000	-0.000000	0.0
-0.000000	-0.000000	0.0
-0.000000	-0.000000	0.0
-0.000000	-0.000000	0.0
-0.000000	-0.000000	0.0
-0.000000	-0.000000	0.0
-0.000000	-0.000000	0.0
-0.000000	-0.000000	0.0
-0.000000	-0.000000	0.0
-0.000000	-0.000000	0.0
-0.000000	-0.000000	0.0
-0.000000	-0.000000	0.0
-0.000000	-0.000000	0.0
-0.000000	-0.000000	0.0
-0.000000	-0.000000	0.0
-0.000000	-0.000000	0.0
-0.000000	-0.000000	0.0
-0.000000	-0.000000	0.0
-0.000000	-0.000000	0.0
-0.000000	-0.000000	0.0
-0.000000	-0.000000	0.0
-0.000000	-0.000000	0.0
-0.000000	-0.000000	0.0
-0.000000	-0.000000	0.0
-0.000000	-0.000000	0.0
-0.000000	-0.000000	0.0
-0.000000	-0.000000	0.0
-0.000000	-0.000000	0.0
-0.000000	-0.000000	0.0
-0.000000	-0.000000	0.0
-0.000000	-0.000000	0.0
-0.000000	-0.000000	0.0
-0.000000	-0.000000	0.0
-0.000000	-0.000000	0.0
-0.000000	-0.000000	0.0
-0.000000	-0.000000	0.0
-0.000000	-0.000000	0.0
-0.000000	-0.000000	0.0
-0.000000	-0.000000	0.0
-0.000000	-0.000000	0.0
-0.000000	-0.000000	0.0
-0.000000	-0.000000	0.0
-0.000000	-0.000000	0.0
-0.000000	-0.000000	0.0
-0.000000	-0.000000	0.0
-0.000000	-0.000000	0.0
-0.000000	-0.000000	0.0
-0.000000	-0.000000	0.0
-0.000000	-0.000000	0.0
-0.000000	-0.000000	0.0
-0.000000	-0.000000	0.0
-0.000000	-0.000000	0.0
-0.000000	-0.000000	0.0
-0.000000	-0.000000	0.0
-0.000000	-0.000000	0.0
-0.000000	-0.000000	0.0
-0.000000	-0.000000	0.0
-0.000000	-0.000000	0.0
-0.000000	-0.000000	0.0
0.000000	-0.000000	0.0
0.000000	-0.000000	0.0
0.000000	-0.000000	0.0
0.000000	-0.000000	0.0
0.000000	-0.000000	0.0
0.000001	-0.000000	0.0
0.000002	-0.000000	0.0
0.000004	-0.000000	0.0
0.000009	-0.000000	0.0
0.000020	-0.000000	0.0
0.000040	0.000000	0.0
0.000079	0.000000	0.0
0.000153	0.000000	0.0
0.000285	0.000000	0.0
0.000516	0.000000	0.0
0.000905	0.000001	0.0
0.001542	0.000001	0.0
0.002549	0.000002	0.0
0.004092	0.000003	0.0
0.006385	0.000004	0.0
0.009699	0.000007	0.0
0.014374	0.000010	0.0
0.020844	0.000014	0.0
0.029691	0.000020	0.0
0.041764	0.000028	0.0
0.058436	0.000038	0.0
0.082255	0.000053	0.0
0.118826	0.000071	0.0
0.184407	0.000081	0.0
0.000000	0.000000	0.0
0.000000	0.000000	0.0
0.000000	0.000000	0.0
0.000000	0.000000	0.0
0.000000	-0.000000	0.0
-0.000000	-0.000000	0.0
-0.000000	-0.000000	0.0
-0.000000	-0.000000	0.0
-0.000000	-0.000000	0.0
-0.000000	-0.000000	0.0
-0.000000	-0.000000	0.0
-0.000000	-0.000000	0.0
-0.000000	-0.000000	0.0
-0.000000	-0.000000	0.0
-0.000000	-0.000000	0.0
-0.000000	-0.000000	0.0
-0.000000	-0.000000	0.0
-0.000000	-0.000000	0.0
-0.000000	-0.000000	0.0
-0.000000	-0.000000	0.0
-0.000000	-0.000000	0.0
-0.000000	-0.000000	0.0
-0.000000	-0.000000	0.0
-0.000000	-0.000000	0.0
-0.000000	-0.000000	0.0
-0.000000	-0.000000	0.0
-0.000000	-0.000000	0.0
-0.000000	-0.000000	0.0
-0.000000	-0.000000	0.0
-0.000000	-0.000000	0.0
-0.000000	-0.000000	0.0
-0.000000	-0.000000	0.0
-0.000000	-0.000000	0.0
-0.000000	-0.000000	0.0
-0.000000	-0.000000	0.0
-0.000000	-0.000000	0.0
-0.000000	-0.000000	0.0
-0.000000	-0.000000	0.0
-0.000000	-0.000000	0.0
-0.000000	-0.000000	0.0
-0.000000	-0.000000	0.0
-0.000000	-0.000000	0.0
-0.000000	-0.000000	0.0
-0.000000	-0.000000	0.0
-0.000000	-0.000000	0.0
-0.000000	-0.000000	0.0
-0.000000	-0.000000	0.0
-0.000000	-0.000000	0.0
-0.000000	-0.000000	0.0
-0.000000	-0.000000	0.0
-0.000000	-0.000000	0.0
-0.000000	-0.000000	0.0
-0.000000	-0.000000	0.0
-0.000000	-0.000000	0.0
-0.000000	-0.000000	0.0
-0.000000	-0.000000	0.0
-0.000000	-0.000000	0.0
-0.000000	-0.000000	0.0
-0.000000	-0.000000	0.0
-0.000000	-0.000000	0.0
-0.000000	-0.000000	0.0
-0.000000	-0.000000	0.0
-0.000000	-0.000000	0.0
-0.000000	-0.000000	0.0
-0.000000	-0.000000	0.0
-0.000000	-0.000000	0.0
-0.000000	-0.000000	0.0
-0.000000	-0.000000	0.0
0.000000	-0.000000	0.0
0.000000	-0.000000	0.0
0.000000	-0.000000	0.0
0.000000	-0.000000	0.0
0.000000	-0.000000	0.0
0.000000	-0.000000	0.0
0.000001	-0.000000	0.0
0.000002	-0.000000	0.0
0.000005	-0.000000	0.0
0.000010	-0.000000	0.0
0.000021	0.000000	0.0
0.000043	0.000000	0.0
0.000085	0.000000	0.0
0.000163	0.000000	0.0
0.000303	0.000000	0.0
0.000548	0.000000	0.0
0.000960	0.000001	0.0
0.001632	0.000001	0.0
0.002692	0.000002	0.0
0.004310	0.000003	0.0
0.006706	0.000005	0.0
0.010151	0.000007	0.0
0.014987	0.000010	0.0
0.021638	0.000015	0.0
0.030674	0.000021	0.0
0.042917	0.000029	0.0
0.059707	0.000039	0.0
0.083547	0.000054	0.0
0.119987	0.000072	0.0
0.185216	0.000082	0.0
0.000000	0.000000	0.0
0.000000	0.000000	0.0
0.000000	0.000000	0.0
0.000000	0.000000	0.0
0.000000	-0.000000	0.0
0.000000	-0.000000	0.0
-0.000000	-0.000000	0.0
-0.000000	-0.000000	0.0
-0.000000	-0.000000	0.0
-0.000000	-0.000000	0.0
-0.000000	-0.000000	0.0
-0.000000	-0.000000	0.0
-0.000000	-0.000000	0.0
-0.000000	-0.000000	0.0
-0.000000	-0.000000	0.0
-0.000000	-0.000000	0.0
-0.000000	-0.000000	0.0
-0.000000	-0.000000	0.0
-0.000000	-0.000000	0.0
-0.000000	-0.000000	0.0
-0.000000	-0.000000	0.0
-0.000000	-0.000000	0.0
-0.000000	-0.000000	0.0
-0.000000	-0.000000	0.0
-0.000000	-0.000000	0.0
-0.000000	-0.000000	0.0
-0.000000	-0.000000	0.0
-0.000000	-0.000000	0.0
-0.000000	-0.000000	0.0
-0.000000	-0.000000	0.0
-0.000000	-0.000000	0.0
-0.000000	-0.000000	0.0
-0.000000	-0.000000	0.0
-0.000000	-0.000000	0.0
-0.000000	-0.000000	0.0
-0.000000	-0.000000	0.0
-0.000000	-0.000000	0.0
-0.000000	-0.000000	0.0
-0.000000	-0.000000	0.0
-0.000000	-0.000000	0.0
-0.000000	-0.000000	0.0
-0.000000	-0.000000	0.0
-0.000000	-0.000000	0.0
-0.000000	-0.000000	0.0
-0.000000	-0.000000	0.0
-0.000000	-0.000000	0.0
-0.000000	-0.000000	0.0
-0.000000	-0.000000	0.0
-0.000000	-0.000000	0.0
-0.000000	-0.000000	0.0
-0.000000	-0.000000	0.0
-0.000000	-0.000000	0.0
-0.000000	-0.000000	0.0
-0.000000	-0.000000	0.0
-0.000000	-0.000000	0.0
-0.000000	-0.000000	0.0
-0.000000	-0.000000	0.0
-0.000000	-0.000000	0.0
-0.000000	-0.000000	0.0
-0.000000	-0.000000	0.0
-0.000000	-0.000000	0.0
-0.000000	-0.000000	0.0
-0.000000	-0.000000	0.0
-0.000000	-0.000000	0.0
-0.000000	-0.000000	0.0
-0.000000	-0.000000	0.0
-0.000000	-0.000000	0.0
0.000000	-0.000000	0.0
0.000000	-0.000000	0.0
0.000000	-0.000000	0.0
0.000000	-0.000000	0.0
0.000000	-0.000000	0.0
0.000000	-0.000000	0.0
0.000000	-0.000000	0.0
0.000001	-0.000000	0.0
0.000002	-0.000000	0.0
0.000005	-0.000000	0.0
0.000011	0.000000	0.0
0.000022	0.000000	0.0
0.000045	0.000000	0.0
0.000089	0.000000	0.0
0.000170	0.000000	0.0
0.000316	0.000000	0.0
0.000570	0.000000	0.0
0.000998	0.000001	0.0
0.001695	0.000001	0.0
0.002790	0.000002	0.0
0.004459	0.000003	0.0
0.006921	0.000005	0.0
0.010451	0.000007	0.0
0.015385	0.000011	0.0
0.022146	0.000015	0.0
0.031290	0.000021	0.0
0.043624	0.000029	0.0
0.060468	0.000040	0.0
0.084301	0.000054	0.0
0.120649	0.000072	0.0
0.185670	0.000082	0.0
0.000000	0.000000	0.0
0.000000	0.000000	0.0
0.000000	0.000000	0.0
0.000000	-0.000000	0.0
0.000000	-0.000000	0.0
0.000000	-0.000000	0.0
0.000000	-0.000000	0.0
0.000000	-0.000000	0.0
0.000000	-0.000000	0.0
-0.000000	-0.000000	0.0
-0.000000	-0.000000	0.0
-0.000000	-0.000000	0.0
-0.000000	-0.000000	0.0
-0.000000	-0.000000	0.0
-0.000000	-0.000000	0.0
-0.000000	-0.000000	0.0
-0.000000	-0.000000	0.0
-0.000000	-0.000000	0.0
-0.000000	-0.000000	0.0
-0.000000	-0.000000	0.0
-0.000000	-0.000000	0.0
-0.000000	-0.000000	0.0
-0.000000	-0.000000	0.0
-0.000000	-0.000000	0.0
-0.000000	-0.000000	0.0
-0.000000	-0.000000	0.0
-0.000000	-0.000000	0.0
-0.000000	-0.000000	0.0
-0.000000	-0.000000	0.0
-0.000000	-0.000000	0.0
-0.000000	-0.000000	0.0
-0.000000	-0.000000	0.0
-0.000000	-0.000000	0.0
-0.000000	-0.000000	0.0
-0.000000	-0.000000	0.0
-0.000000	-0.000000	0.0
-0.000000	-0.000000	0.0
-0.000000	-0.000000	0.0
-0.000000	-0.000000	0.0
-0.000000	-0.000000	0.0
-0.000000	-0.000000	0.0
-0.000000	-0.000000	0.0
-0.000000	-0.000000	0.0
-0.000000	-0.000000	0.0
-0.000000	-0.000000	0.0
-0.000000	-0.000000	0.0
-0.000000	-0.000000	0.0
-0.000000	-0.000000	0.0
-0.000000	-0.000000	0.0
-0.000000	-0.000000	0.0
-0.000000	-0.000000	0.0
-0.000000	-0.000000	0.0
-0.000000	-0.000000	0.0
-0.000000	-0.000000	0.0
-0.000000	-0.000000	0.0
-0.000000	-0.000000	0.0
-0.000000	-0.000000	0.0
-0.000000	-0.000000	0.0
-0.000000	-0.000000	0.0
-0.000000	-0.000000	0.0
-0.000000	-0.000000	0.0
-0.000000	-0.000000	0.0
-0.000000	-0.000000	0.0
-0.000000	-0.000000	0.0
-0.000000	-0.000000	0.0
-0.000000	-0.000000	0.0
-0.000000	-0.000000	0.0
0.000000	-0.000000	0.0
0.000000	-0.000000	0.0
0.000000	-0.000000	0.0
0.000000	-0.000000	0.0
0.000000	-0.000000	0.0
0.000000	-0.000000	0.0
0.000000	-0.000000	0.0
0.000001	-0.000000	0.0
0.000002	-0.000000	0.0
0.000005	0.000000	0.0
0.000011	0.000000	0.0
0.000023	0.000000	0.0
0.000046	0.000000	0.0
0.000091	0.000000	0.0
0.000175	0.000000	0.0
0.000325	0.000000	0.0
0.000586	0.000000	0.0
0.001024	0.000001	0.0
0.001737	0.000001	0.0
0.002855	0.000002	0.0
0.004556	0.000003	0.0
0.007060	0.000005	0.0
0.010642	0.000007	0.0
0.015636	0.000011	0.0
0.022461	0.000015	0.0
0.031665	0.000022	0.0
0.044047	0.000030	0.0
0.060916	0.000040	0.0
0.084737	0.000055	0.0
0.121026	0.000072	0.0
0.185925	0.000083	0.0
0.000000	0.000000	0.0
0.000000	0.000000	0.0
0.000000	-0.000000	0.0
0.000000	-0.000000	0.0
0.000000	-0.000000	0.0
0.000000	-0.000000	0.0
0.000000	-0.000000	0.0
0.000000	-0.000000	0.0
0.000000	-0.000000	0.0
-0.000000	-0.000000	0.0
-0.000000	-0.000000	0.0
-0.000000	-0.000000	0.0
-0.000000	-0.000000	0.0
-0.000000	-0.000000	0.0
-0.000000	-0.000000	0.0
-0.000000	-0.000000	0.0
-0.000000	-0.000000	0.0
-0.000000	-0.000000	0.0
-0.000000	-0.000000	0.0
-0.000000	-0.000000	0.0
-0.000000	-0.000000	0.0
-0.000000	-0.000000	0.0
-0.000000	-0.000000	0.0
-0.000000	-0.000000	0.0
-0.000000	-0.000000	0.0
-0.000000	-0.000000	0.0
-0.000000	-0.000000	0.0
-0.000000	-0.000000	0.0
-0.000000	-0.000000	0.0
-0.000000	-0.000000	0.0
-0.000000	-0.000000	0.0
-0.000000	-0.000000	0.0
-0.000000	-0.000000	0.0
-0.000000	-0.000000	0.0
-0.000000	-0.000000	0.0
-0.000000	-0.000000	0.0
-0.000000	-0.000000	0.0
-0.000000	-0.000000	0.0
-0.000000	-0.000000	0.0
-0.000000	-0.000000	0.0
-0.000000	-0.000000	0.0
-0.000000	-0.000000	0.0
-0.000000	-0.000000	0.0
-0.000000	-0.000000	0.0
-0.000000	-0.000000	0.0
-0.000000	-0.000000	0.0
-0.000000	-0.000000	0.0
-0.000000	-0.000000	0.0
-0.000000	-0.000000	0.0
-0.000000	-0.000000	0.0
-0.000000	-0.000000	0.0
-0.000000	-0.000000	0.0
-0.000000	-0.000000	0.0
-0.000000	-0.000000	0.0
-0.000000	-0.000000	0.0
-0.000000	-0.000000	0.0
-0.000000	-0.000000	0.0
-0.000000	-0.000000	0.0
-0.000000	-0.000000	0.0
-0.000000	-0.000000	0.0
-0.000000	-0.000000	0.0
-0.000000	-0.000000	0.0
-0.000000	-0.000000	0.0
-0.000000	-0.000000	0.0
-0.000000	-0.000000	0.0
-0.000000	-0.000000	0.0
-0.000000	-0.000000	0.0
0.000000	-0.000000	0.0
0.000000	-0.000000	0.0
0.000000	-0.000000	0.0
0.000000	-0.000000	0.0
0.000000	-0.000000	0.0
0.000000	-0.000000	0.0
0.000000	-0.000000	0.0
0.000001	-0.000000	0.0
0.000002	-0.000000	0.0
0.000005	0.000000	0.0
0.000011	0.000000	0.0
0.000023	0.000000	0.0
0.000047	0.000000	0.0
0.000093	0.000000	0.0
0.000178	0.000000	0.0
0.000331	0.000000	0.0
0.000596	0.000000	0.0
0.001041	0.000001	0.0
0.001763	0.000001	0.0
0.002897	0.000002	0.0
0.004617	0.000003	0.0
0.007147	0.000005	0.0
0.010760	0.000008	0.0
0.015790	0.000011	0.0
0.022651	0.000016	0.0
0.031889	0.000022	0.0
0.044296	0.000030	0.0
0.061175	0.000041	0.0
0.084985	0.000055	0.0
0.121237	0.000073	0.0
0.186066	0.000083	0.0
0.000000	0.000000	0.0
0.000000	0.000000	0.0
0.000000	-0.000000	0.0
0.000000	-0.000000	0.0
0.000000	-0.000000	0.0
0.000000	-0.000000	0.0
0.000000	-0.000000	0.0
0.000000	-0.000000	0.0
0.000000	-0.000000	0.0
-0.000000	-0.000000	0.0
-0.000000	-0.000000	0.0
-0.000000	-0.000000	0.0
-0.000000	-0.000000	0.0
-0.000000	-0.000000	0.0
-0.000000	-0.000000	0.0
-0.000000	-0.000000	0.0
-0.000000	-0.000000	0.0
-0.000000	-0.000000	0.0
-0.000000	-0.000000	0.0
-0.000000	-0.000000	0.0
-0.000000	-0.000000	0.0
-0.000000	-0.000000	0.0
-0.000000	-0.000000	0.0
-0.000000	-0.000000	0.0
-0.000000	-0.000000	0.0
-0.000000	-0.000000	0.0
-0.000000	-0.000000	0.0
-0.000000	-0.000000	0.0
-0.000000	-0.000000	0.0
-0.000000	-0.000000	0.0
-0.000000	-0.000000	0.0
-0.000000	-0.000000	0.0
-0.000000	-0.000000	0.0
-0.000000	-0.000000	0.0
-0.000000	-0.000000	0.0
-0.000000	-0.000000	0.0
-0.000000	-0.000000	0.0
-0.000000	-0.000000	0.0
-0.000000	-0.000000	0.0
-0.000000	-0.000000	0.0
-0.000000	-0.000000	0.0
-0.000000	-0.000000	0.0
-0.000000	-0.000000	0.0
-0.000000	-0.000000	0.0
-0.000000	-0.000000	0.0
-0.000000	-0.000000	0.0
-0.000000	-0.000000	0.0
-0.000000	-0.000000	0.0
-0.000000	-0.000000	0.0
-0.000000	-0.000000	0.0
-0.000000	-0.000000	0.0
-0.000000	-0.000000	0.0
-0.000000	-0.000000	0.0
-0.000000	-0.000000	0.0
-0.000000	-0.000000	0.0
-0.000000	-0.000000	0.0
-0.000000	-0.000000	0.0
-0.000000	-0.000000	0.0
-0.000000	-0.000000	0.0
-0.000000	-0.000000	0.0
-0.000000	-0.000000	0.0
-0.000000	-0.000000	0.0
-0.000000	-0.000000	0.0
-0.000000	-0.000000	0.0
-0.000000	-0.000000	0.0
-0.000000	-0.000000	0.0
0.000000	-0.000000	0.0
0.000000	-0.000000	0.0
0.000000	-0.000000	0.0
0.000000	-0.000000	0.0
0.000000	-0.000000	0.0
0.000000	-0.000000	0.0
0.000000	-0.000000	0.0
0.000000	-0.000000	0.0
0.000001	-0.000000	0.0
0.000002	0.000000	0.0
0.000005	0.000000	0.0
0.000011	0.000000	0.0
0.000023	0.000000	0.0
0.000048	0.000000	0.0
0.000094	0.000000	0.0
0.000180	0.000000	0.0
0.000334	0.000000	0.0
0.000602	0.000000	0.0
0.001051	0.000001	0.0
0.001780	0.000001	0.0
0.002922	0.000002	0.0
0.004655	0.000003	0.0
0.007200	0.000005	0.0
0.010831	0.000008	0.0
0.015882	0.000011	0.0
0.022763	0.000016	0.0
0.032018	0.000022	0.0
0.044438	0.000030	0.0
0.061321	0.000041	0.0
0.085125	0.000055	0.0
0.121355	0.000073	0.0
0.186145	0.000083	0.0
0.000000	0.000000	0.0
0.000000	0.000000	0.0
0.000000	0.000000	0.0
0.000000	-0.000000	0.0
0.000000	-0.000000	0.0
0.000000	-0.000000	0.0
0.000000	-0.000000	0.0
0.000000	-0.000000	0.0
0.000000	-0.000000	0.0
-0.000000	-0.000000	0.0
-0.000000	-0.000000	0.0
-0.000000	-0.000000	0.0
-0.000000	-0.000000	0.0
-0.000000	-0.000000	0.0
-0.000000	-0.000000	0.0
-0.000000	-0.000000	0.0
-0.000000	-0.000000	0.0
-0.000000	-0.000000	0.0
-0.000000	-0.000000	0.0
-0.000000	-0.000000	0.0
-0.000000	-0.000000	0.0
-0.000000	-0.000000	0.0
-0.000000	-0.000000	0.0
-0.000000	-0.000000	0.0
-0.000000	-0.000000	0.0
-0.000000	-0.000000	0.0
-0.000000	-0.000000	0.0
-0.000000	-0.000000	0.0
-0.000000	-0.000000	0.0
-0.000000	-0.000000	0.0
-0.000000	-0.000000	0.0
-0.000000	-0.000000	0.0
-0.000000	-0.000000	0.0
-0.000000	-0.000000	0.0
-0.000000	-0.000000	0.0
-0.000000	-0.000000	0.0
-0.000000	-0.000000	0.0
-0.000000	-0.000000	0.0
-0.000000	-0.000000	0.0
-0.000000	-0.000000	0.0
-0.000000	-0.000000	0.0
-0.000000	-0.000000	0.0
-0.000000	-0.000000	0.0
-0.000000	-0.000000	0.0
-0.000000	-0.000000	0.0
-0.000000	-0.000000	0.0
-0.000000	-0.000000	0.0
-0.000000	-0.000000	0.0
-0.000000	-0.000000	0.0
-0.000000	-0.000000	0.0
-0.000000	-0.000000	0.0
-0.000000	-0.000000	0.0
-0.000000	-0.000000	0.0
-0.000000	-0.000000	0.0
-0.000000	-0.000000	0.0
-0.000000	-0.000000	0.0
-0.000000	-0.000000	0.0
-0.000000	-0.000000	0.0
-0.000000	-0.000000	0.0
-0.000000	-0.000000	0.0
-0.000000	-0.000000	0.0
-0.000000	-0.000000	0.0
-0.000000	-0.000000	0.0
-0.000000	-0.000000	0.0
-0.000000	-0.000000	0.0
-0.000000	-0.000000	0.0
0.000000	-0.000000	0.0
0.000000	-0.000000	0.0
0.000000	-0.000000	0.0
0.000000	-0.000000	0.0
0.000000	-0.000000	0.0
0.000000	-0.000000	0.0
0.000000	-0.000000	0.0
0.000000	-0.000000	0.0
0.000001	-0.000000	0.0
0.000002	0.000000	0.0
0.000005	0.000000	0.0
0.000011	0.000000	0.0
0.000024	0.000000	0.0
0.000048	0.000000	0.0
0.000095	0.000000	0.0
0.000181	0.000000	0.0
0.000337	0.000000	0.0
0.000606	0.000000	0.0
0.001058	0.000001	0.0
0.001790	0.000001	0.0
0.002938	0.000002	0.0
0.004677	0.000003	0.0
0.007231	0.000005	0.0
0.010873	0.000008	0.0
0.015934	0.000011	0.0
0.022827	0.000016	0.0
0.032092	0.000022	0.0
0.044518	0.000030	0.0
0.061403	0.000041	0.0
0.085201	0.000055	0.0
0.121419	0.000073	0.0
0.186187	0.000083	0.0
0.000000	0.000000	0.0
0.000000	0.000000	0.0
0.000000	0.000000	0.0
0.000000	0.000000	0.0
0.000000	-0.000000	0.0
0.000000	-0.000000	0.0
0.000000	-0.000000	0.0
0.000000	-0.000000	0.0
-0.000000	-0.000000	0.0
-0.000000	-0.000000	0.0
-0.000000	-0.000000	0.0
-0.000000	-0.000000	0.0
-0.000000	-0.000000	0.0
-0.000000	-0.000000	0.0
-0.000000	-0.000000	0.0
-0.000000	-0.000000	0.0
-0.000000	-0.000000	0.0
-0.000000	-0.000000	0.0
-0.000000	-0.000000	0.0
-0.000000	-0.000000	0.0