# vtk DataFile Version 3.0
Header
ASCII
DATASET RECTILINEAR_GRID
DIMENSIONS 98 98 1
X_COORDINATES 98 double
0.030000 0.050000 0.070000 0.090000 0.110000 0.130000 0.150000 0.170000 0.190000 0.210000 0.230000 0.250000 0.270000 0.290000 0.310000 0.330000 0.350000 0.370000 0.390000 0.410000 0.430000 0.450000 0.470000 0.490000 0.510000 0.530000 0.550000 0.570000 0.590000 0.610000 0.630000 0.650000 0.670000 0.690000 0.710000 0.730000 0.750000 0.770000 0.790000 0.810000 0.830000 0.850000 0.870000 0.890000 0.910000 0.930000 0.950000 0.970000 0.990000 1.010000 1.030000 1.050000 1.070000 1.090000 1.110000 1.130000 1.150000 1.170000 1.190000 1.210000 1.230000 1.250000 1.270000 1.290000 1.310000 1.330000 1.350000 1.370000 1.390000 1.410000 1.430000 1.450000 1.470000 1.490000 1.510000 1.530000 1.550000 1.570000 1.590000 1.610000 1.630000 1.650000 1.670000 1.690000 1.710000 1.730000 1.750000 1.770000 1.790000 1.810000 1.830000 1.850000 1.870000 1.890000 1.910000 1.930000 1.950000 1.970000 
Y_COORDINATES 98 double
0.030000 0.050000 0.070000 0.090000 0.110000 0.130000 0.150000 0.170000 0.190000 0.210000 0.230000 0.250000 0.270000 0.290000 0.310000 0.330000 0.350000 0.370000 0.390000 0.410000 0.430000 0.450000 0.470000 0.490000 0.510000 0.530000 0.550000 0.570000 0.590000 0.610000 0.630000 0.650000 0.670000 0.690000 0.710000 0.730000 0.750000 0.770000 0.790000 0.810000 0.830000 0.850000 0.870000 0.890000 0.910000 0.930000 0.950000 0.970000 0.990000 1.010000 1.030000 1.050000 1.070000 1.090000 1.110000 1.130000 1.150000 1.170000 1.190000 1.210000 1.230000 1.250000 1.270000 1.290000 1.310000 1.330000 1.350000 1.370000 1.390000 1.410000 1.430000 1.450000 1.470000 1.490000 1.510000 1.530000 1.550000 1.570000 1.590000 1.610000 1.630000 1.650000 1.670000 1.690000 1.710000 1.730000 1.750000 1.770000 1.790000 1.810000 1.830000 1.850000 1.870000 1.890000 1.910000 1.930000 1.950000 1.970000 
Z_COORDINATES 1 double
0.0
POINT_DATA 9604
VECTORS velocity double
-0.000004	-0.000004	0.0
-0.000001	-0.000001	0.0
-0.000000	0.000000	0.0
0.000000	0.000000	0.0
0.000000	0.000000	0.0
0.000000	0.000000	0.0
0.000000	0.000001	0.0
0.000000	0.000001	0.0
0.000000	0.000001	0.0
0.000000	0.000001	0.0
0.000000	0.000001	0.0
0.000000	0.000001	0.0
0.000000	0.000001	0.0
0.000000	0.000001	0.0
0.000000	0.000001	0.0
0.000000	0.000001	0.0
0.000000	0.000001	0.0
0.000000	0.000001	0.0
0.000000	0.000001	0.0
0.000000	0.000001	0.0
0.000000	0.000001	0.0
0.000000	0.000001	0.0
0.000000	0.000001	0.0
0.000000	0.000001	0.0
0.000000	0.000001	0.0
0.000000	0.000001	0.0
0.000000	0.000001	0.0
0.000000	0.000001	0.0
0.000000	0.000001	0.0
0.000000	0.000001	0.0
0.000000	0.000001	0.0
0.000000	0.000001	0.0
0.000000	0.000001	0.0
0.000000	0.000001	0.0
0.000000	0.000001	0.0
0.000000	0.000001	0.0
0.000000	0.000001	0.0
0.000000	0.000001	0.0
0.000000	0.000001	0.0
0.000000	0.000001	0.0
0.000000	0.000001	0.0
0.000000	0.000001	0.0
0.000000	0.000001	0.0
0.000000	0.000001	0.0
0.000000	0.000001	0.0
0.000000	0.000001	0.0
0.000000	0.000001	0.0
0.000000	0.000001	0.0
0.000000	0.000001	0.0
0.000000	0.000001	0.0
0.000000	0.000001	0.0
0.000000	0.000001	0.0
0.000000	0.000001	0.0
0.000000	0.000001	0.0
0.000000	0.000001	0.0
0.000000	0.000001	0.0
0.000001	0.000001	0.0
0.000001	0.000001	0.0
0.000001	0.000001	0.0
0.000002	0.000001	0.0
0.000003	0.000001	0.0
0.000004	0.000001	0.0
0.000005	0.000001	0.0
0.000008	0.000001	0.0
0.000011	0.000001	0.0
0.000015	0.000001	0.0
0.000021	0.000001	0.0
0.000029	0.000001	0.0
0.000040	0.000001	0.0
0.000055	0.000001	0.0
0.000075	0.000001	0.0
0.000100	0.000000	0.0
0.000133	0.000000	0.0
0.000176	0.000000	0.0
0.000231	0.000000	0.0
0.000300	0.000000	0.0
0.000387	0.000000	0.0
0.000497	0.000000	0.0
0.000633	0.000000	0.0
0.000801	0.000000	0.0
0.001008	-0.000000	0.0
0.001263	-0.000000	0.0
0.001575	-0.000000	0.0
0.001958	-0.000000	0.0
0.002428	-0.000001	0.0
0.003008	-0.000001	0.0
0.003728	-0.000001	0.0
0.004629	-0.000001	0.0
0.005775	-0.000002	0.0
0.007254	-0.000002	0.0
0.009211	-0.000002	0.0
0.011875	-0.000002	0.0
0.015642	-0.000003	0.0
0.021236	-0.000003	0.0
0.030089	-0.000003	0.0
0.045321	-0.000004	0.0
0.074648	-0.000005	0.0
0.141453	-0.000006	0.0
-0.000001	-0.000001	0.0
-0.000001	-0.000000	0.0
-0.000000	-0.000000	0.0
-0.000000	0.000000	0.0
-0.000000	0.000000	0.0
0.000000	0.000000	0.0
0.000000	0.000000	0.0
0.000000	0.000000	0.0
0.000000	0.000000	0.0
0.000000	0.000000	0.0
0.000000	0.000000	0.0
0.000000	0.000000	0.0
0.000000	0.000000	0.0
0.000000	0.000000	0.0
0.000000	0.000000	0.0
0.000000	0.000000	0.0
0.000000	0.000000	0.0
0.000000	0.000000	0.0
0.000000	0.000000	0.0
0.000000	0.000000	0.0
0.000000	0.000000	0.0
0.000000	0.000000	0.0
0.000000	0.000000	0.0
0.000000	0.000000	0.0
0.000000	0.000000	0.0
0.000000	0.000000	0.0
0.000000	0.000000	0.0
0.000000	0.000000	0.0
0.000000	0.000000	0.0
0.000000	0.000000	0.0
0.000000	0.000000	0.0
0.000000	0.000000	0.0
0.000000	0.000000	0.0
0.000000	0.000000	0.0
0.000000	0.000000	0.0
0.000000	0.000000	0.0
0.000000	0.000000	0.0
0.000000	0.000000	0.0
0.000000	0.000000	0.0
0.000000	0.000000	0.0
0.000000	0.000000	0.0
0.000000	0.000000	0.0
0.000000	0.000000	0.0
0.000000	0.000000	0.0
0.000000	0.000000	0.0
0.000000	0.000000	0.0
0.000000	0.000000	0.0
0.000000	0.000000	0.0
0.000000	0.000000	0.0
0.000000	0.000000	0.0
0.000000	0.000000	0.0
0.000000	0.000000	0.0
0.000000	0.000000	0.0
0.000000	0.000000	0.0
0.000000	0.000000	0.0
0.000001	0.000000	0.0
0.000001	0.000000	0.0
0.000001	0.000000	0.0
0.000002	0.000000	0.0
0.000003	0.000000	0.0
0.000004	0.000000	0.0
0.000006	0.000000	0.0
0.000009	0.000000	0.0
0.000012	0.000000	0.0
0.000018	0.000000	0.0
0.000025	0.000000	0.0
0.000035	0.000000	0.0
0.000048	0.000000	0.0
0.000067	0.000000	0.0
0.000091	0.000000	0.0
0.000123	0.000000	0.0
0.000165	0.000000	0.0
0.000220	0.000000	0.0
0.000290	0.000000	0.0
0.000380	0.000000	0.0
0.000494	-0.000000	0.0
0.000638	-0.000000	0.0
0.000818	-0.000000	0.0
0.001041	-0.000000	0.0
0.001316	-0.000000	0.0
0.001656	-0.000001	0.0
0.002072	-0.000001	0.0
0.002581	-0.000001	0.0
0.003204	-0.000001	0.0
0.003967	-0.000002	0.0
0.004905	-0.000002	0.0
0.006064	-0.000002	0.0
0.007508	-0.000003	0.0
0.009328	-0.000003	0.0
0.011660	-0.000004	0.0
0.014705	-0.000004	0.0
0.018783	-0.000004	0.0
0.024419	-0.000005	0.0
0.032514	-0.000005	0.0
0.044719	-0.000006	0.0
0.064279	-0.000007	0.0
0.098346	-0.000009	0.0
0.166540	-0.000010	0.0
-0.000000	-0.000000	0.0
-0.000000	-0.000000	0.0
-0.000000	-0.000000	0.0
-0.000000	0.000000	0.0
-0.000000	0.000000	0.0
-0.000000	0.000000	0.0
0.000000	0.000000	0.0
0.000000	0.000000	0.0
0.000000	0.000000	0.0
0.000000	0.000000	0.0
0.000000	0.000000	0.0
0.000000	0.000000	0.0
0.000000	0.000000	0.0
0.000000	0.000000	0.0
0.000000	0.000000	0.0
0.000000	0.000000	0.0
0.000000	0.000000	0.0
0.000000	0.000000	0.0
0.000000	0.000000	0.0
0.000000	0.000000	0.0
0.000000	0.000000	0.0
0.000000	0.000000	0.0
0.000000	0.000000	0.0
0.000000	0.000000	0.0
0.000000	0.000000	0.0
0.000000	0.000000	0.0
0.000000	0.000000	0.0
0.000000	0.000000	0.0
0.000000	0.000000	0.0
0.000000	0.000000	0.0
0.000000	0.000000	0.0
0.000000	0.000000	0.0
0.000000	0.000000	0.0
0.000000	0.000000	0.0
0.000000	0.000000	0.0
0.000000	0.000000	0.0
0.000000	0.000000	0.0
0.000000	0.000000	0.0
0.000000	0.000000	0.0
0.000000	0.000000	0.0
0.000000	0.000000	0.0
0.000000	0.000000	0.0
0.000000	0.000000	0.0
0.000000	0.000000	0.0
0.000000	0.000000	0.0
0.000000	0.000000	0.0
0.000000	0.000000	0.0
0.000000	0.000000	0.0
0.000000	0.000000	0.0
0.000000	0.000000	0.0
0.000000	0.000000	0.0
0.000000	0.000000	0.0
0.000000	0.000000	0.0
0.000000	0.000000	0.0
0.000001	0.000000	0.0
0.000001	0.000000	0.0
0.000001	0.000000	0.0
0.000002	0.000000	0.0
0.000003	0.000000	0.0
0.000004	0.000000	0.0
0.000006	0.000000	0.0
0.000008	0.000000	0.0
0.000012	0.000000	0.0
0.000017	0.000000	0.0
0.000024	0.000000	0.0
0.000034	0.000000	0.0
0.000048	0.000000	0.0
0.000067	0.000000	0.0
0.000092	0.000000	0.0
0.000125	0.000000	0.0
0.000170	0.000000	0.0
0.000228	0.000000	0.0
0.000303	0.000000	0.0
0.000400	-0.000000	0.0
0.000524	-0.000000	0.0
0.000681	-0.000000	0.0
0.000878	-0.000000	0.0
0.001124	-0.000000	0.0
0.001429	-0.000001	0.0
0.001806	-0.000001	0.0
0.002269	-0.000001	0.0
0.002835	-0.000001	0.0
0.003527	-0.000002	0.0
0.004370	-0.000002	0.0
0.005398	-0.000003	0.0
0.006656	-0.000003	0.0
0.008202	-0.000003	0.0
0.010115	-0.000004	0.0
0.012505	-0.000005	0.0
0.015533	-0.000005	0.0
0.019432	-0.000006	0.0
0.024561	-0.000006	0.0
0.031482	-0.000007	0.0
0.041124	-0.000007	0.0
0.055099	-0.000008	0.0
0.076429	-0.000009	0.0
0.111539	-0.000011	0.0
0.178031	-0.000012	0.0
-0.000000	-0.000000	0.0
-0.000000	-0.000000	0.0
-0.000000	-0.000000	0.0
-0.000000	0.000000	0.0
-0.000000	0.000000	0.0
-0.000000	0.000000	0.0
-0.000000	0.000000	0.0
0.000000	0.000000	0.0
0.000000	0.000000	0.0
0.000000	0.000000	0.0
0.000000	0.000000	0.0
0.000000	0.000000	0.0
0.000000	0.000000	0.0
0.000000	0.000000	0.0
0.000000	0.000000	0.0
0.000000	0.000000	0.0
0.000000	0.000000	0.0
0.000000	0.000000	0.0
0.000000	0.000000	0.0
0.000000	0.000000	0.0
0.000000	0.000000	0.0
0.000000	0.000000	0.0
0.000000	0.000000	0.0
0.000000	0.000000	0.0
0.000000	0.000000	0.0
0.000000	0.000000	0.0
0.000000	0.000000	0.0
0.000000	0.000000	0.0
0.000000	0.000000	0.0
0.000000	0.000000	0.0
0.000000	0.000000	0.0
0.000000	0.000000	0.0
0.000000	0.000000	0.0
0.000000	0.000000	0.0
0.000000	0.000000	0.0
0.000000	0.000000	0.0
0.000000	0.000000	0.0
0.000000	0.000000	0.0
0.000000	0.000000	0.0
0.000000	0.000000	0.0
0.000000	0.000000	0.0
0.000000	0.000000	0.0
0.000000	0.000000	0.0
0.000000	0.000000	0.0
0.000000	0.000000	0.0
0.000000	0.000000	0.0
0.000000	0.000000	0.0
0.000000	0.000000	0.0
0.000000	0.000000	0.0
0.000000	0.000000	0.0
0.000000	0.000000	0.0
0.000000	0.000000	0.0
0.000000	0.000000	0.0
0.000000	0.000000	0.0
0.000001	0.000000	0.0
0.000001	0.000000	0.0
0.000001	0.000000	0.0
0.000002	0.000000	0.0
0.000003	0.000000	0.0
0.000005	0.000000	0.0
0.000007	0.000000	0.0
0.000010	0.000000	0.0
0.000015	0.000000	0.0
0.000022	0.000000	0.0
0.000031	0.000000	0.0
0.000043	0.000000	0.0
0.000061	0.000000	0.0
0.000084	0.000000	0.0
0.000116	0.000000	0.0
0.000158	0.000000	0.0
0.000214	0.000000	0.0
0.000287	-0.000000	0.0
0.000382	-0.000000	0.0
0.000504	-0.000000	0.0
0.000660	-0.000000	0.0
0.000857	-0.000000	0.0
0.001104	-0.000000	0.0
0.001412	-0.000001	0.0
0.001793	-0.000001	0.0
0.002263	-0.000001	0.0
0.002839	-0.000001	0.0
0.003542	-0.000002	0.0
0.004397	-0.000002	0.0
0.005435	-0.000003	0.0
0.006697	-0.000003	0.0
0.008232	-0.000004	0.0
0.010107	-0.000004	0.0
0.012409	-0.000005	0.0
0.015260	-0.000006	0.0
0.018829	-0.000006	0.0
0.023362	-0.000007	0.0
0.029222	-0.000008	0.0
0.036969	-0.000008	0.0
0.047496	-0.000009	0.0
0.062319	-0.000010	0.0
0.084239	-0.000011	0.0
0.119230	-0.000013	0.0
0.183992	-0.000013	0.0
-0.000000	-0.000000	0.0
-0.000000	-0.000000	0.0
-0.000000	-0.000000	0.0
-0.000000	0.000000	0.0
-0.000000	0.000000	0.0
-0.000000	0.000000	0.0
-0.000000	0.000000	0.0
-0.000000	0.000000	0.0
0.000000	0.000000	0.0
0.000000	0.000000	0.0
0.000000	0.000000	0.0
0.000000	0.000000	0.0
0.000000	0.000000	0.0
0.000000	0.000000	0.0
0.000000	0.000000	0.0
0.000000	0.000000	0.0
0.000000	0.000000	0.0
0.000000	0.000000	0.0
0.000000	0.000000	0.0
0.000000	0.000000	0.0
0.000000	0.000000	0.0
0.000000	0.000000	0.0
0.000000	0.000000	0.0
0.000000	0.000000	0.0
0.000000	0.000000	0.0
0.000000	0.000000	0.0
0.000000	0.000000	0.0
0.000000	0.000000	0.0
0.000000	0.000000	0.0
0.000000	0.000000	0.0
0.000000	0.000000	0.0
0.000000	0.000000	0.0
0.000000	0.000000	0.0
0.000000	0.000000	0.0
0.000000	0.000000	0.0
0.000000	0.000000	0.0
0.000000	0.000000	0.0
0.000000	0.000000	0.0
0.000000	0.000000	0.0
0.000000	0.000000	0.0
0.000000	0.000000	0.0
0.000000	0.000000	0.0
0.000000	0.000000	0.0
0.000000	0.000000	0.0
0.000000	0.000000	0.0
0.000000	0.000000	0.0
0.000000	0.000000	0.0
0.000000	0.000000	0.0
0.000000	0.000000	0.0
0.000000	0.000000	0.0
0.000000	0.000000	0.0
0.000000	0.000000	0.0
0.000000	0.000000	0.0
0.000001	0.000000	0.0
0.000001	0.000000	0.0
0.000001	0.000000	0.0
0.000002	0.000000	0.0
0.000003	0.000000	0.0
0.000004	0.000000	0.0
0.000006	0.000000	0.0
0.000008	0.000000	0.0
0.000012	0.000000	0.0
0.000018	0.000000	0.0
0.000026	0.000000	0.0
0.000037	0.000000	0.0
0.000052	0.000000	0.0
0.000073	0.000000	0.0
0.000101	0.000000	0.0
0.000139	0.000000	0.0
0.000189	0.000000	0.0
0.000256	-0.000000	0.0
0.000343	-0.000000	0.0
0.000456	-0.000000	0.0
0.000601	-0.000000	0.0
0.000786	-0.000000	0.0
0.001020	-0.000000	0.0
0.001313	-0.000001	0.0
0.001677	-0.000001	0.0
0.002128	-0.000001	0.0
0.002682	-0.000001	0.0
0.003359	-0.000002	0.0
0.004182	-0.000002	0.0
0.005181	-0.000003	0.0
0.006390	-0.000003	0.0
0.007851	-0.000004	0.0
0.009620	-0.000005	0.0
0.011766	-0.000005	0.0
0.014381	-0.000006	0.0
0.017590	-0.000007	0.0
0.021565	-0.000008	0.0
0.026550	-0.000008	0.0
0.032900	-0.000009	0.0
0.041152	-0.000010	0.0
0.052155	-0.000011	0.0
0.067338	-0.000012	0.0
0.089355	-0.000013	0.0
0.123941	-0.000014	0.0
0.187397	-0.000014	0.0
-0.000000	-0.000000	0.0
-0.000000	-0.000000	0.0
-0.000000	0.000000	0.0
-0.000000	0.000000	0.0
-0.000000	0.000000	0.0
-0.000000	0.000000	0.0
-0.000000	0.000000	0.0
-0.000000	0.000000	0.0
0.000000	0.000000	0.0
0.000000	0.000000	0.0
0.000000	0.000000	0.0
0.000000	0.000000	0.0
0.000000	0.000000	0.0
0.000000	0.000000	0.0
0.000000	0.000000	0.0
0.000000	0.000000	0.0
0.000000	0.000000	0.0
0.000000	0.000000	0.0
0.000000	0.000000	0.0
0.000000	0.000000	0.0
0.000000	0.000000	0.0
0.000000	0.000000	0.0
0.000000	0.000000	0.0
0.000000	0.000000	0.0
0.000000	0.000000	0.0
0.000000	0.000000	0.0
0.000000	0.000000	0.0
0.000000	0.000000	0.0
0.000000	0.000000	0.0
0.000000	0.000000	0.0
0.000000	0.000000	0.0
0.000000	0.000000	0.0
0.000000	0.000000	0.0
0.000000	0.000000	0.0
0.000000	0.000000	0.0
0.000000	0.000000	0.0
0.000000	0.000000	0.0
0.000000	0.000000	0.0
0.000000	0.000000	0.0
0.000000	0.000000	0.0
0.000000	0.000000	0.0
0.000000	0.000000	0.0
0.000000	0.000000	0.0
0.000000	0.000000	0.0
0.000000	0.000000	0.0
0.000000	0.000000	0.0
0.000000	0.000000	0.0
0.000000	0.000000	0.0
0.000000	0.000000	0.0
0.000000	0.000000	0.0
0.000000	0.000000	0.0
0.000000	0.000000	0.0
0.000000	0.000000	0.0
0.000001	0.000000	0.0
0.000001	0.000000	0.0
0.000001	0.000000	0.0
0.000002	0.000000	0.0
0.000003	0.000000	0.0
0.000004	0.000000	0.0
0.000007	0.000000	0.0
0.000010	0.000000	0.0
0.000014	0.000000	0.0
0.000021	0.000000	0.0
0.000030	0.000000	0.0
0.000042	0.000000	0.0
0.000060	0.000000	0.0
0.000084	0.000000	0.0
0.000116	0.000000	0.0
0.000160	0.000000	0.0
0.000218	0.000000	0.0
0.000295	-0.000000	0.0
0.000395	-0.000000	0.0
0.000524	-0.000000	0.0
0.000691	-0.000000	0.0
0.000902	-0.000000	0.0
0.001169	-0.000001	0.0
0.001504	-0.000001	0.0
0.001919	-0.000001	0.0
0.002432	-0.000001	0.0
0.003060	-0.000002	0.0
0.003825	-0.000002	0.0
0.004754	-0.000003	0.0
0.005877	-0.000003	0.0
0.007230	-0.000004	0.0
0.008859	-0.000004	0.0
0.010819	-0.000005	0.0
0.013183	-0.000006	0.0
0.016043	-0.000007	0.0
0.019524	-0.000008	0.0
0.023795	-0.000009	0.0
0.029093	-0.000009	0.0
0.035760	-0.000010	0.0
0.044310	-0.000011	0.0
0.055552	-0.000012	0.0
0.070855	-0.000013	0.0
0.092785	-0.000014	0.0
0.126955	-0.000015	0.0
0.189485	-0.000015	0.0
-0.000000	-0.000000	0.0
-0.000000	-0.000000	0.0
-0.000000	0.000000	0.0
-0.000000	0.000000	0.0
-0.000000	0.000000	0.0
-0.000000	0.000000	0.0
-0.000000	0.000000	0.0
-0.000000	0.000000	0.0
0.000000	0.000000	0.0
0.000000	0.000000	0.0
0.000000	0.000000	0.0
0.000000	0.000000	0.0
0.000000	0.000000	0.0
0.000000	0.000000	0.0
0.000000	0.000000	0.0
0.000000	0.000000	0.0
0.000000	0.000000	0.0
0.000000	0.000000	0.0
0.000000	0.000000	0.0
0.000000	0.000000	0.0
0.000000	0.000000	0.0
0.000000	0.000000	0.0
0.000000	0.000000	0.0
0.000000	0.000000	0.0
0.000000	0.000000	0.0
0.000000	0.000000	0.0
0.000000	0.000000	0.0
0.000000	0.000000	0.0
0.000000	0.000000	0.0
0.000000	0.000000	0.0
0.000000	0.000000	0.0
0.000000	0.000000	0.0
0.000000	0.000000	0.0
0.000000	0.000000	0.0
0.000000	0.000000	0.0
0.000000	0.000000	0.0
0.000000	0.000000	0.0
0.000000	0.000000	0.0
0.000000	0.000000	0.0
0.000000	0.000000	0.0
0.000000	0.000000	0.0
0.000000	0.000000	0.0
0.000000	0.000000	0.0
0.000000	0.000000	0.0
0.000000	0.000000	0.0
0.000000	0.000000	0.0
0.000000	0.000000	0.0
0.000000	0.000000	0.0
0.000000	0.000000	0.0
0.000000	0.000000	0.0
0.000000	0.000000	0.0
0.000000	0.000000	0.0
0.000000	0.000000	0.0
0.000001	0.000000	0.0
0.000001	0.000000	0.0
0.000001	0.000000	0.0
0.000002	0.000000	0.0
0.000003	0.000000	0.0
0.000005	0.000000	0.0
0.000007	0.000000	0.0
0.000011	0.000000	0.0
0.000016	0.000000	0.0
0.000023	0.000000	0.0
0.000033	0.000000	0.0
0.000048	0.000000	0.0
0.000067	0.000000	0.0
0.000094	0.000000	0.0
0.000131	0.000000	0.0
0.000179	0.000000	0.0
0.000244	-0.000000	0.0
0.000330	-0.000000	0.0
0.000442	-0.000000	0.0
0.000587	-0.000000	0.0
0.000772	-0.000000	0.0
0.001008	-0.000000	0.0
0.001305	-0.000001	0.0
0.001676	-0.000001	0.0
0.002136	-0.000001	0.0
0.002702	-0.000001	0.0
0.003395	-0.000002	0.0
0.004238	-0.000002	0.0
0.005257	-0.000003	0.0
0.006484	-0.000003	0.0
0.007958	-0.000004	0.0
0.009724	-0.000005	0.0
0.011839	-0.000006	0.0
0.014375	-0.000007	0.0
0.017424	-0.000008	0.0
0.021107	-0.000009	0.0
0.025589	-0.000009	0.0
0.031099	-0.000010	0.0
0.037967	-0.000011	0.0
0.046684	-0.000012	0.0
0.058034	-0.000013	0.0
0.073346	-0.000014	0.0
0.095136	-0.000014	0.0
0.128956	-0.000015	0.0
0.190833	-0.000016	0.0
-0.000000	0.000000	0.0
-0.000000	0.000000	0.0
-0.000000	0.000000	0.0
-0.000000	0.000000	0.0
-0.000000	0.000000	0.0
-0.000000	0.000000	0.0
-0.000000	0.000000	0.0
-0.000000	0.000000	0.0
0.000000	0.000000	0.0
0.000000	0.000000	0.0
0.000000	0.000000	0.0
0.000000	0.000000	0.0
0.000000	0.000000	0.0
0.000000	0.000000	0.0
0.000000	0.000000	0.0
0.000000	0.000000	0.0
0.000000	0.000000	0.0
0.000000	0.000000	0.0
0.000000	0.000000	0.0
0.000000	0.000000	0.0
0.000000	0.000000	0.0
0.000000	0.000000	0.0
0.000000	0.000000	0.0
0.000000	0.000000	0.0
0.000000	0.000000	0.0
0.000000	0.000000	0.0
0.000000	0.000000	0.0
0.000000	0.000000	0.0
0.000000	0.000000	0.0
0.000000	0.000000	0.0
0.000000	0.000000	0.0
0.000000	0.000000	0.0
0.000000	0.000000	0.0
0.000000	0.000000	0.0
0.000000	0.000000	0.0
0.000000	0.000000	0.0
0.000000	0.000000	0.0
0.000000	0.000000	0.0
0.000000	0.000000	0.0
0.000000	0.000000	0.0
0.000000	0.000000	0.0
0.000000	0.000000	0.0
0.000000	0.000000	0.0
0.000000	0.000000	0.0
0.000000	0.000000	0.0
0.000000	0.000000	0.0
0.000000	0.000000	0.0
0.000000	0.000000	0.0
0.000000	0.000000	0.0
0.000000	0.000000	0.0
0.000000	0.000000	0.0
0.000000	0.000000	0.0
0.000000	0.000000	0.0
0.000001	0.000000	0.0
0.000001	0.000000	0.0
0.000002	0.000000	0.0
0.000002	0.000000	0.0
0.000004	0.000000	0.0
0.000006	0.000000	0.0
0.000008	0.000000	0.0
0.000012	0.000000	0.0
0.000018	0.000000	0.0
0.000026	0.000000	0.0
0.000037	0.000000	0.0
0.000052	0.000000	0.0
0.000074	0.000000	0.0
0.000103	0.000000	0.0
0.000143	0.000000	0.0
0.000197	0.000000	0.0
0.000268	-0.000000	0.0
0.000362	-0.000000	0.0
0.000484	-0.000000	0.0
0.000642	-0.000000	0.0
0.000845	-0.000000	0.0
0.001102	-0.000001	0.0
0.001425	-0.000001	0.0
0.001828	-0.000001	0.0
0.002327	-0.000001	0.0
0.002941	-0.000002	0.0
0.003689	-0.000002	0.0
0.004597	-0.000003	0.0
0.005692	-0.000003	0.0
0.007007	-0.000004	0.0
0.008580	-0.000005	0.0
0.010457	-0.000005	0.0
0.012695	-0.000006	0.0
0.015364	-0.000007	0.0
0.018555	-0.000008	0.0
0.022387	-0.000009	0.0
0.027018	-0.000010	0.0
0.032669	-0.000011	0.0
0.039660	-0.000012	0.0
0.048468	-0.000013	0.0
0.059856	-0.000014	0.0
0.075130	-0.000014	0.0
0.096778	-0.000015	0.0
0.130322	-0.000016	0.0
0.191737	-0.000016	0.0
-0.000000	0.000000	0.0
-0.000000	0.000000	0.0
-0.000000	0.000000	0.0
-0.000000	0.000000	0.0
-0.000000	0.000000	0.0
-0.000000	0.000000	0.0
-0.000000	0.000000	0.0
-0.000000	0.000000	0.0
0.000000	0.000000	0.0
0.000000	0.000000	0.0
0.000000	0.000000	0.0
0.000000	0.000000	0.0
0.000000	0.000000	0.0
0.000000	0.000000	0.0
0.000000	0.000000	0.0
0.000000	0.000000	0.0
0.000000	0.000000	0.0
0.000000	0.000000	0.0
0.000000	0.000000	0.0
0.000000	0.000000	0.0
0.000000	0.000000	0.0
0.000000	0.000000	0.0
0.000000	0.000000	0.0
0.000000	0.000000	0.0
0.000000	0.000000	0.0
0.000000	0.000000	0.0
0.000000	0.000000	0.0
0.000000	0.000000	0.0
0.000000	0.000000	0.0
0.000000	0.000000	0.0
0.000000	0.000000	0.0
0.000000	0.000000	0.0
0.000000	0.000000	0.0
0.000000	0.000000	0.0
0.000000	0.000000	0.0
0.000000	0.000000	0.0
0.000000	0.000000	0.0
0.000000	0.000000	0.0
0.000000	0.000000	0.0
0.000000	0.000000	0.0
0.000000	0.000000	0.0
0.000000	0.000000	0.0
0.000000	0.000000	0.0
0.000000	0.000000	0.0
0.000000	0.000000	0.0
0.000000	0.000000	0.0
0.000000	0.000000	0.0
0.000000	0.000000	0.0
0.000000	0.000000	0.0
0.000000	0.000000	0.0
0.000000	0.000000	0.0
0.000000	0.000000	0.0
0.000000	0.000000	0.0
0.000001	0.000000	0.0
0.000001	0.000000	0.0
0.000002	0.000000	0.0
0.000003	0.000000	0.0
0.000004	0.000000	0.0
0.000006	0.000000	0.0
0.000009	0.000000	0.0
0.000013	0.000000	0.0
0.000019	0.000000	0.0
0.000028	0.000000	0.0
0.000040	0.000000	0.0
0.000057	0.000000	0.0
0.000080	0.000000	0.0
0.000112	0.000000	0.0
0.000155	0.000000	0.0
0.000213	-0.000000	0.0
0.000289	-0.000000	0.0
0.000390	-0.000000	0.0
0.000522	-0.000000	0.0
0.000692	-0.000000	0.0
0.000909	-0.000000	0.0
0.001185	-0.000001	0.0
0.001531	-0.000001	0.0
0.001962	-0.000001	0.0
0.002494	-0.000001	0.0
0.003148	-0.000002	0.0
0.003943	-0.000002	0.0
0.004906	-0.000003	0.0
0.006064	-0.000003	0.0
0.007450	-0.000004	0.0
0.009103	-0.000005	0.0
0.011069	-0.000006	0.0
0.013403	-0.000007	0.0
0.016175	-0.000008	0.0
0.019473	-0.000009	0.0
0.023412	-0.000010	0.0
0.028146	-0.000011	0.0
0.033891	-0.000012	0.0
0.040955	-0.000013	0.0
0.049809	-0.000014	0.0
0.061199	-0.000014	0.0
0.076420	-0.000015	0.0
0.097943	-0.000016	0.0
0.131275	-0.000017	0.0
0.192360	-0.000016	0.0
-0.000000	0.000000	0.0
-0.000000	0.000000	0.0
-0.000000	0.000000	0.0
-0.000000	0.000000	0.0
-0.000000	0.000000	0.0
-0.000000	0.000000	0.0
-0.000000	0.000000	0.0
-0.000000	0.000000	0.0
0.000000	0.000000	0.0
0.000000	0.000000	0.0
0.000000	0.000000	0.0
0.000000	0.000000	0.0
0.000000	0.000000	0.0
0.000000	0.000000	0.0
0.000000	0.000000	0.0
0.000000	0.000000	0.0
0.000000	0.000000	0.0
0.000000	0.000000	0.0
0.000000	0.000000	0.0
0.000000	0.000000	0.0
0.000000	0.000000	0.0
0.000000	0.000000	0.0
0.000000	0.000000	0.0
0.000000	0.000000	0.0
0.000000	0.000000	0.0
0.000000	0.000000	0.0
0.000000	0.000000	0.0
0.000000	0.000000	0.0
0.000000	0.000000	0.0
0.000000	0.000000	0.0
0.000000	0.000000	0.0
0.000000	0.000000	0.0
0.000000	0.000000	0.0
0.000000	0.000000	0.0
0.000000	0.000000	0.0
0.000000	0.000000	0.0
0.000000	0.000000	0.0
0.000000	0.000000	0.0
0.000000	0.000000	0.0
0.000000	0.000000	0.0
0.000000	0.000000	0.0
0.000000	0.000000	0.0
0.000000	0.000000	0.0
0.000000	0.000000	0.0
0.000000	0.000000	0.0
0.000000	0.000000	0.0
0.000000	0.000000	0.0
0.000000	0.000000	0.0
0.000000	0.000000	0.0
0.000000	0.000000	0.0
0.000000	0.000000	0.0
0.000000	0.000000	0.0
0.000001	0.000000	0.0
0.000001	0.000000	0.0
0.000001	0.000000	0.0
0.000002	0.000000	0.0
0.000003	0.000000	0.0
0.000004	0.000000	0.0
0.000006	0.000000	0.0
0.000009	0.000000	0.0
0.000014	0.000000	0.0
0.000020	0.000000	0.0
0.000030	0.000000	0.0
0.000043	0.000000	0.0
0.000060	0.000000	0.0
0.000085	0.000000	0.0
0.000119	0.000000	0.0
0.000165	-0.000000	0.0
0.000227	-0.000000	0.0
0.000308	-0.000000	0.0
0.000416	-0.000000	0.0
0.000555	-0.000000	0.0
0.000735	-0.000000	0.0
0.000965	-0.000001	0.0
0.001257	-0.000001	0.0
0.001622	-0.000001	0.0
0.002077	-0.000001	0.0
0.002638	-0.000002	0.0
0.003325	-0.000002	0.0
0.004160	-0.000002	0.0
0.005168	-0.000003	0.0
0.006378	-0.000004	0.0
0.007822	-0.000004	0.0
0.009540	-0.000005	0.0
0.011575	-0.000006	0.0
0.013984	-0.000007	0.0
0.016834	-0.000008	0.0
0.020210	-0.000009	0.0
0.024226	-0.000010	0.0
0.029031	-0.000011	0.0
0.034836	-0.000012	0.0
0.041945	-0.000013	0.0
0.050817	-0.000014	0.0
0.062194	-0.000015	0.0
0.077361	-0.000016	0.0
0.098781	-0.000016	0.0
0.131952	-0.000017	0.0
0.192798	-0.000017	0.0
-0.000000	0.000000	0.0
-0.000000	0.000000	0.0
-0.000000	0.000000	0.0
-0.000000	0.000000	0.0
-0.000000	0.000000	0.0
-0.000000	0.000000	0.0
-0.000000	0.000000	0.0
-0.000000	0.000000	0.0
0.000000	0.000000	0.0
0.000000	0.000000	0.0
0.000000	0.000000	0.0
0.000000	0.000000	0.0
0.000000	0.000000	0.0
0.000000	0.000000	0.0
0.000000	0.000000	0.0
0.000000	0.000000	0.0
0.000000	0.000000	0.0
0.000000	0.000000	0.0
0.000000	0.000000	0.0
0.000000	0.000000	0.0
0.000000	0.000000	0.0
0.000000	0.000000	0.0
0.000000	0.000000	0.0
0.000000	0.000000	0.0
0.000000	0.000000	0.0
0.000000	0.000000	0.0
0.000000	0.000000	0.0
0.000000	0.000000	0.0
0.000000	0.000000	0.0
0.000000	0.000000	0.0
0.000000	0.000000	0.0
0.000000	0.000000	0.0
0.000000	0.000000	0.0
0.000000	0.000000	0.0
0.000000	0.000000	0.0
0.000000	0.000000	0.0
0.000000	0.000000	0.0
0.000000	0.000000	0.0
0.000000	0.000000	0.0
0.000000	0.000000	0.0
0.000000	0.000000	0.0
0.000000	0.000000	0.0
0.000000	0.000000	0.0
0.000000	0.000000	0.0
0.000000	0.000000	0.0
0.000000	0.000000	0.0
0.000000	0.000000	0.0
0.000000	0.000000	0.0
0.000000	0.000000	0.0
0.000000	0.000000	0.0
0.000000	0.000000	0.0
0.000000	0.000000	0.0
0.000001	0.000000	0.0
0.000001	0.000000	0.0
0.000001	0.000000	0.0
0.000002	0.000000	0.0
0.000003	0.000000	0.0
0.000004	0.000000	0.0
0.000007	0.000000	0.0
0.000010	0.000000	0.0
0.000015	0.000000	0.0
0.000022	0.000000	0.0
0.000031	0.000000	0.0
0.000045	0.000000	0.0
0.000064	0.000000	0.0
0.000090	0.000000	0.0
0.000126	-0.000000	0.0
0.000174	-0.000000	0.0
0.000239	-0.000000	0.0
0.000325	-0.000000	0.0
0.000437	-0.000000	0.0
0.000584	-0.000000	0.0
0.000773	-0.000000	0.0
0.001014	-0.000001	0.0
0.001319	-0.000001	0.0
0.001701	-0.000001	0.0
0.002176	-0.000001	0.0
0.002761	-0.000002	0.0
0.003476	-0.000002	0.0
0.004344	-0.000003	0.0
0.005389	-0.000003	0.0
0.006640	-0.000004	0.0
0.008131	-0.000005	0.0
0.009899	-0.000005	0.0
0.011989	-0.000006	0.0
0.014455	-0.000007	0.0
0.017363	-0.000008	0.0
0.020798	-0.000010	0.0
0.024868	-0.000011	0.0
0.029722	-0.000012	0.0
0.035566	-0.000013	0.0
0.042698	-0.000014	0.0
0.051576	-0.000015	0.0
0.062934	-0.000015	0.0
0.078052	-0.000016	0.0
0.099390	-0.000017	0.0
0.132438	-0.000017	0.0
0.193111	-0.000017	0.0
-0.000000	0.000000	0.0
-0.000000	0.000000	0.0
-0.000000	0.000000	0.0
-0.000000	0.000000	0.0
-0.000000	0.000000	0.0
-0.000000	0.000000	0.0
-0.000000	0.000000	0.0
-0.000000	0.000000	0.0
0.000000	0.000000	0.0
0.000000	0.000000	0.0
0.000000	0.000000	0.0
0.000000	0.000000	0.0
0.000000	0.000000	0.0
0.000000	0.000000	0.0
0.000000	0.000000	0.0
0.000000	0.000000	0.0
0.000000	0.000000	0.0
0.000000	0.000000	0.0
0.000000	0.000000	0.0
0.000000	0.000000	0.0
0.000000	0.000000	0.0
0.000000	0.000000	0.0
0.000000	0.000000	0.0
0.000000	0.000000	0.0
0.000000	0.000000	0.0
0.000000	0.000000	0.0
0.000000	0.000000	0.0
0.000000	0.000000	0.0
0.000000	0.000000	0.0
0.000000	0.000000	0.0
0.000000	0.000000	0.0
0.000000	0.000000	0.0
0.000000	0.000000	0.0
0.000000	0.000000	0.0
0.000000	0.000000	0.0
0.000000	0.000000	0.0
0.000000	0.000000	0.0
0.000000	0.000000	0.0
0.000000	0.000000	0.0
0.000000	0.000000	0.0
0.000000	0.000000	0.0
0.000000	0.000000	0.0
0.000000	0.000000	0.0
0.000000	0.000000	0.0
0.000000	0.000000	0.0
0.000000	0.000000	0.0
0.000000	0.000000	0.0
0.000000	0.000000	0.0
0.000000	0.000000	0.0
0.000000	0.000000	0.0
0.000000	0.000000	0.0
0.000000	0.000000	0.0
0.000001	0.000000	0.0
0.000001	0.000000	0.0
0.000001	0.000000	0.0
0.000002	0.000000	0.0
0.000003	0.000000	0.0
0.000005	0.000000	0.0
0.000007	0.000000	0.0
0.000010	0.000000	0.0
0.000015	0.000000	0.0
0.000023	0.000000	0.0
0.000033	0.000000	0.0
0.000047	0.000000	0.0
0.000067	0.000000	0.0
0.000094	0.000000	0.0
0.000131	-0.000000	0.0
0.000182	-0.000000	0.0
0.000249	-0.000000	0.0
0.000339	-0.000000	0.0
0.000456	-0.000000	0.0
0.000609	-0.000000	0.0
0.000805	-0.000000	0.0
0.001056	-0.000001	0.0
0.001372	-0.000001	0.0
0.001768	-0.000001	0.0
0.002260	-0.000001	0.0
0.002864	-0.000002	0.0
0.003602	-0.000002	0.0
0.004496	-0.000003	0.0
0.005572	-0.000003	0.0
0.006857	-0.000004	0.0
0.008384	-0.000005	0.0
0.010192	-0.000006	0.0
0.012325	-0.000007	0.0
0.014834	-0.000008	0.0
0.017786	-0.000009	0.0
0.021263	-0.000010	0.0
0.025372	-0.000011	0.0
0.030259	-0.000012	0.0
0.036127	-0.000013	0.0
0.043272	-0.000014	0.0
0.052147	-0.000015	0.0
0.063485	-0.000016	0.0
0.078562	-0.000016	0.0
0.099834	-0.000017	0.0
0.132792	-0.000017	0.0
0.193337	-0.000017	0.0
-0.000000	0.000000	0.0
-0.000000	0.000000	0.0
-0.000000	0.000000	0.0
-0.000000	0.000000	0.0
-0.000000	0.000000	0.0
-0.000000	0.000000	0.0
-0.000000	0.000000	0.0
-0.000000	0.000000	0.0
0.000000	0.000000	0.0
0.000000	0.000000	0.0
0.000000	0.000000	0.0
0.000000	0.000000	0.0
0.000000	0.000000	0.0
0.000000	0.000000	0.0
0.000000	0.000000	0.0
0.000000	0.000000	0.0
0.000000	0.000000	0.0
0.000000	0.000000	0.0
0.000000	0.000000	0.0
0.000000	0.000000	0.0
0.000000	0.000000	0.0
0.000000	0.000000	0.0
0.000000	0.000000	0.0
0.000000	0.000000	0.0
0.000000	0.000000	0.0
0.000000	0.000000	0.0
0.000000	0.000000	0.0
0.000000	0.000000	0.0
0.000000	0.000000	0.0
0.000000	0.000000	0.0
0.000000	0.000000	0.0
0.000000	0.000000	0.0
0.000000	0.000000	0.0
0.000000	0.000000	0.0
0.000000	0.000000	0.0
0.000000	0.000000	0.0
0.000000	0.000000	0.0
0.000000	0.000000	0.0
0.000000	0.000000	0.0
0.000000	0.000000	0.0
0.000000	0.000000	0.0
0.000000	0.000000	0.0
0.000000	0.000000	0.0
0.000000	0.000000	0.0
0.000000	0.000000	0.0
0.000000	0.000000	0.0
0.000000	0.000000	0.0
0.000000	0.000000	0.0
0.000000	0.000000	0.0
0.000000	0.000000	0.0
0.000000	0.000000	0.0
0.000000	0.000000	0.0
0.000001	0.000000	0.0
0.000001	0.000000	0.0
0.000001	0.000000	0.0
0.000002	0.000000	0.0
0.000003	0.000000	0.0
0.000005	0.000000	0.0
0.000007	0.000000	0.0
0.000011	0.000000	0.0
0.000016	0.000000	0.0
0.000023	0.000000	0.0
0.000034	0.000000	0.0
0.000049	0.000000	0.0
0.000069	0.000000	0.0
0.000098	-0.000000	0.0
0.000136	-0.000000	0.0
0.000188	-0.000000	0.0
0.000258	-0.000000	0.0
0.000351	-0.000000	0.0
0.000472	-0.000000	0.0
0.000630	-0.000000	0.0
0.000832	-0.000000	0.0
0.001091	-0.000001	0.0
0.001416	-0.000001	0.0
0.001824	-0.000001	0.0
0.002329	-0.000001	0.0