# vtk DataFile Version 3.0
Header
ASCII
DATASET RECTILINEAR_GRID
DIMENSIONS 98 98 1
X_COORDINATES 98 double
0.030000 0.050000 0.070000 0.090000 0.110000 0.130000 0.150000 0.170000 0.190000 0.210000 0.230000 0.250000 0.270000 0.290000 0.310000 0.330000 0.350000 0.370000 0.390000 0.410000 0.430000 0.450000 0.470000 0.490000 0.510000 0.530000 0.550000 0.570000 0.590000 0.610000 0.630000 0.650000 0.670000 0.690000 0.710000 0.730000 0.750000 0.770000 0.790000 0.810000 0.830000 0.850000 0.870000 0.890000 0.910000 0.930000 0.950000 0.970000 0.990000 1.010000 1.030000 1.050000 1.070000 1.090000 1.110000 1.130000 1.150000 1.170000 1.190000 1.210000 1.230000 1.250000 1.270000 1.290000 1.310000 1.330000 1.350000 1.370000 1.390000 1.410000 1.430000 1.450000 1.470000 1.490000 1.510000 1.530000 1.550000 1.570000 1.590000 1.610000 1.630000 1.650000 1.670000 1.690000 1.710000 1.730000 1.750000 1.770000 1.790000 1.810000 1.830000 1.850000 1.870000 1.890000 1.910000 1.930000 1.950000 1.970000 
Y_COORDINATES 98 double
0.030000 0.050000 0.070000 0.090000 0.110000 0.130000 0.150000 0.170000 0.190000 0.210000 0.230000 0.250000 0.270000 0.290000 0.310000 0.330000 0.350000 0.370000 0.390000 0.410000 0.430000 0.450000 0.470000 0.490000 0.510000 0.530000 0.550000 0.570000 0.590000 0.610000 0.630000 0.650000 0.670000 0.690000 0.710000 0.730000 0.750000 0.770000 0.790000 0.810000 0.830000 0.850000 0.870000 0.890000 0.910000 0.930000 0.950000 0.970000 0.990000 1.010000 1.030000 1.050000 1.070000 1.090000 1.110000 1.130000 1.150000 1.170000 1.190000 1.210000 1.230000 1.250000 1.270000 1.290000 1.310000 1.330000 1.350000 1.370000 1.390000 1.410000 1.430000 1.450000 1.470000 1.490000 1.510000 1.530000 1.550000 1.570000 1.590000 1.610000 1.630000 1.650000 1.670000 1.690000 1.710000 1.730000 1.750000 1.770000 1.790000 1.810000 1.830000 1.850000 1.870000 1.890000 1.910000 1.930000 1.950000 1.970000 
Z_COORDINATES 1 double
0.0
POINT_DATA 9604
VECTORS velocity double
0.000004	0.000003	0.0
0.000002	0.000000	0.0
0.000001	-0.000000	0.0
0.000002	-0.000000	0.0
0.000003	0.000000	0.0
0.000003	0.000000	0.0
0.000004	0.000000	0.0
0.000004	0.000000	0.0
0.000005	0.000000	0.0
0.000006	0.000000	0.0
0.000007	0.000000	0.0
0.000007	0.000000	0.0
0.000008	0.000000	0.0
0.000009	0.000000	0.0
0.000010	0.000000	0.0
0.000011	0.000000	0.0
0.000013	0.000000	0.0
0.000014	0.000000	0.0
0.000015	0.000000	0.0
0.000017	0.000000	0.0
0.000019	0.000000	0.0
0.000020	0.000000	0.0
0.000022	0.000000	0.0
0.000025	0.000000	0.0
0.000027	0.000000	0.0
0.000030	0.000000	0.0
0.000032	0.000000	0.0
0.000035	0.000000	0.0
0.000039	0.000000	0.0
0.000042	0.000000	0.0
0.000046	0.000000	0.0
0.000050	0.000000	0.0
0.000054	0.000000	0.0
0.000059	0.000000	0.0
0.000064	0.000000	0.0
0.000069	0.000000	0.0
0.000075	0.000000	0.0
0.000081	0.000000	0.0
0.000088	0.000000	0.0
0.000095	0.000000	0.0
0.000103	0.000000	0.0
0.000111	0.000000	0.0
0.000120	0.000000	0.0
0.000129	0.000000	0.0
0.000140	0.000000	0.0
0.000150	0.000000	0.0
0.000162	0.000000	0.0
0.000175	0.000000	0.0
0.000188	0.000001	0.0
0.000202	0.000001	0.0
0.000218	0.000001	0.0
0.000234	0.000001	0.0
0.000252	0.000001	0.0
0.000270	0.000001	0.0
0.000291	0.000001	0.0
0.000312	0.000001	0.0
0.000336	0.000001	0.0
0.000361	0.000001	0.0
0.000388	0.000001	0.0
0.000417	0.000001	0.0
0.000448	0.000001	0.0
0.000482	0.000001	0.0
0.000518	0.000001	0.0
0.000558	0.000002	0.0
0.000601	0.000002	0.0
0.000647	0.000002	0.0
0.000698	0.000002	0.0
0.000753	0.000002	0.0
0.000814	0.000002	0.0
0.000880	0.000002	0.0
0.000953	0.000002	0.0
0.001034	0.000003	0.0
0.001123	0.000003	0.0
0.001222	0.000003	0.0
0.001333	0.000003	0.0
0.001457	0.000003	0.0
0.001597	0.000004	0.0
0.001755	0.000004	0.0
0.001935	0.000004	0.0
0.002142	0.000004	0.0
0.002380	0.000005	0.0
0.002657	0.000005	0.0
0.002981	0.000005	0.0
0.003366	0.000005	0.0
0.003826	0.000006	0.0
0.004382	0.000006	0.0
0.005066	0.000006	0.0
0.005918	0.000007	0.0
0.007000	0.000007	0.0
0.008404	0.000007	0.0
0.010272	0.000007	0.0
0.012836	0.000006	0.0
0.016493	0.000006	0.0
0.021969	0.000005	0.0
0.030696	0.000004	0.0
0.045797	0.000003	0.0
0.074989	0.000002	0.0
0.141651	0.000000	0.0
0.000001	0.000001	0.0
0.000002	-0.000000	0.0
0.000002	-0.000000	0.0
0.000003	-0.000000	0.0
0.000004	-0.000000	0.0
0.000005	-0.000000	0.0
0.000006	0.000000	0.0
0.000007	-0.000000	0.0
0.000009	-0.000000	0.0
0.000010	-0.000000	0.0
0.000011	-0.000000	0.0
0.000012	-0.000000	0.0
0.000014	-0.000000	0.0
0.000015	-0.000000	0.0
0.000017	-0.000000	0.0
0.000019	-0.000000	0.0
0.000021	-0.000000	0.0
0.000023	-0.000000	0.0
0.000026	-0.000000	0.0
0.000028	-0.000000	0.0
0.000031	-0.000000	0.0
0.000034	-0.000000	0.0
0.000038	-0.000000	0.0
0.000041	-0.000000	0.0
0.000045	-0.000000	0.0
0.000049	-0.000000	0.0
0.000054	-0.000000	0.0
0.000059	-0.000000	0.0
0.000064	-0.000000	0.0
0.000070	0.000000	0.0
0.000076	0.000000	0.0
0.000083	0.000000	0.0
0.000090	0.000000	0.0
0.000098	0.000000	0.0
0.000106	0.000000	0.0
0.000115	0.000000	0.0
0.000125	0.000000	0.0
0.000135	0.000000	0.0
0.000146	0.000000	0.0
0.000158	0.000000	0.0
0.000171	0.000000	0.0
0.000185	0.000000	0.0
0.000200	0.000000	0.0
0.000215	0.000000	0.0
0.000232	0.000000	0.0
0.000250	0.000000	0.0
0.000270	0.000001	0.0
0.000291	0.000001	0.0
0.000313	0.000001	0.0
0.000337	0.000001	0.0
0.000362	0.000001	0.0
0.000389	0.000001	0.0
0.000419	0.000001	0.0
0.000450	0.000001	0.0
0.000484	0.000001	0.0
0.000520	0.000001	0.0
0.000558	0.000001	0.0
0.000600	0.000001	0.0
0.000645	0.000002	0.0
0.000693	0.000002	0.0
0.000745	0.000002	0.0
0.000801	0.000002	0.0
0.000861	0.000002	0.0
0.000927	0.000002	0.0
0.000998	0.000003	0.0
0.001075	0.000003	0.0
0.001159	0.000003	0.0
0.001251	0.000003	0.0
0.001351	0.000003	0.0
0.001461	0.000004	0.0
0.001582	0.000004	0.0
0.001715	0.000004	0.0
0.001862	0.000005	0.0
0.002026	0.000005	0.0
0.002208	0.000005	0.0
0.002413	0.000005	0.0
0.002643	0.000006	0.0
0.002903	0.000006	0.0
0.003199	0.000007	0.0
0.003537	0.000007	0.0
0.003927	0.000007	0.0
0.004380	0.000008	0.0
0.004909	0.000008	0.0
0.005534	0.000009	0.0
0.006279	0.000009	0.0
0.007178	0.000010	0.0
0.008276	0.000010	0.0
0.009638	0.000011	0.0
0.011354	0.000011	0.0
0.013560	0.000011	0.0
0.016459	0.000011	0.0
0.020372	0.000010	0.0
0.025827	0.000010	0.0
0.033729	0.000008	0.0
0.045728	0.000007	0.0
0.065076	0.000005	0.0
0.098923	0.000003	0.0
0.166884	0.000001	0.0
0.000001	-0.000000	0.0
0.000002	-0.000000	0.0
0.000004	-0.000000	0.0
0.000005	-0.000000	0.0
0.000006	-0.000000	0.0
0.000008	0.000000	0.0
0.000009	0.000000	0.0
0.000010	-0.000000	0.0
0.000012	-0.000000	0.0
0.000014	-0.000000	0.0
0.000015	-0.000000	0.0
0.000017	-0.000000	0.0
0.000019	-0.000000	0.0
0.000022	-0.000000	0.0
0.000024	-0.000000	0.0
0.000027	-0.000000	0.0
0.000029	-0.000000	0.0
0.000033	-0.000000	0.0
0.000036	-0.000000	0.0
0.000040	-0.000000	0.0
0.000044	-0.000000	0.0
0.000048	-0.000000	0.0
0.000053	-0.000000	0.0
0.000058	-0.000000	0.0
0.000063	-0.000000	0.0
0.000069	-0.000000	0.0
0.000075	-0.000000	0.0
0.000082	-0.000000	0.0
0.000090	0.000000	0.0
0.000098	0.000000	0.0
0.000107	0.000000	0.0
0.000116	0.000000	0.0
0.000126	0.000000	0.0
0.000137	0.000000	0.0
0.000149	0.000000	0.0
0.000161	0.000000	0.0
0.000175	0.000000	0.0
0.000189	0.000000	0.0
0.000205	0.000000	0.0
0.000221	0.000000	0.0
0.000239	0.000000	0.0
0.000258	0.000000	0.0
0.000279	0.000001	0.0
0.000301	0.000001	0.0
0.000324	0.000001	0.0
0.000350	0.000001	0.0
0.000377	0.000001	0.0
0.000406	0.000001	0.0
0.000437	0.000001	0.0
0.000470	0.000001	0.0
0.000505	0.000001	0.0
0.000543	0.000001	0.0
0.000584	0.000001	0.0
0.000628	0.000001	0.0
0.000675	0.000002	0.0
0.000725	0.000002	0.0
0.000779	0.000002	0.0
0.000837	0.000002	0.0
0.000899	0.000002	0.0
0.000966	0.000002	0.0
0.001038	0.000003	0.0
0.001116	0.000003	0.0
0.001200	0.000003	0.0
0.001291	0.000003	0.0
0.001390	0.000004	0.0
0.001497	0.000004	0.0
0.001614	0.000004	0.0
0.001741	0.000005	0.0
0.001880	0.000005	0.0
0.002032	0.000005	0.0
0.002199	0.000006	0.0
0.002383	0.000006	0.0
0.002587	0.000006	0.0
0.002813	0.000007	0.0
0.003064	0.000007	0.0
0.003346	0.000008	0.0
0.003662	0.000008	0.0
0.004019	0.000009	0.0
0.004424	0.000009	0.0
0.004887	0.000010	0.0
0.005419	0.000010	0.0
0.006035	0.000011	0.0
0.006753	0.000012	0.0
0.007597	0.000012	0.0
0.008600	0.000013	0.0
0.009804	0.000014	0.0
0.011265	0.000014	0.0
0.013064	0.000015	0.0
0.015310	0.000015	0.0
0.018164	0.000015	0.0
0.021862	0.000015	0.0
0.026765	0.000014	0.0
0.033438	0.000013	0.0
0.042815	0.000012	0.0
0.056511	0.000009	0.0
0.077551	0.000007	0.0
0.112360	0.000005	0.0
0.178526	0.000002	0.0
0.000002	-0.000000	0.0
0.000003	-0.000000	0.0
0.000005	-0.000000	0.0
0.000006	-0.000000	0.0
0.000008	-0.000000	0.0
0.000010	-0.000000	0.0
0.000011	-0.000000	0.0
0.000013	-0.000000	0.0
0.000015	-0.000000	0.0
0.000017	-0.000000	0.0
0.000020	-0.000000	0.0
0.000022	-0.000000	0.0
0.000025	-0.000000	0.0
0.000028	-0.000000	0.0
0.000031	-0.000000	0.0
0.000034	-0.000000	0.0
0.000038	-0.000000	0.0
0.000042	-0.000000	0.0
0.000046	-0.000000	0.0
0.000051	-0.000000	0.0
0.000056	-0.000000	0.0
0.000061	-0.000000	0.0
0.000067	-0.000000	0.0
0.000074	-0.000000	0.0
0.000081	-0.000000	0.0
0.000088	-0.000000	0.0
0.000097	-0.000000	0.0
0.000105	-0.000000	0.0
0.000115	-0.000000	0.0
0.000125	-0.000000	0.0
0.000137	0.000000	0.0
0.000149	0.000000	0.0
0.000161	0.000000	0.0
0.000175	0.000000	0.0
0.000190	0.000000	0.0
0.000206	0.000000	0.0
0.000224	0.000000	0.0
0.000242	0.000000	0.0
0.000262	0.000000	0.0
0.000284	0.000000	0.0
0.000306	0.000000	0.0
0.000331	0.000001	0.0
0.000357	0.000001	0.0
0.000385	0.000001	0.0
0.000416	0.000001	0.0
0.000448	0.000001	0.0
0.000483	0.000001	0.0
0.000520	0.000001	0.0
0.000559	0.000001	0.0
0.000602	0.000001	0.0
0.000647	0.000001	0.0
0.000696	0.000002	0.0
0.000748	0.000002	0.0
0.000803	0.000002	0.0
0.000863	0.000002	0.0
0.000927	0.000002	0.0
0.000996	0.000002	0.0
0.001070	0.000003	0.0
0.001150	0.000003	0.0
0.001235	0.000003	0.0
0.001327	0.000003	0.0
0.001426	0.000004	0.0
0.001534	0.000004	0.0
0.001650	0.000004	0.0
0.001775	0.000005	0.0
0.001911	0.000005	0.0
0.002059	0.000005	0.0
0.002221	0.000006	0.0
0.002397	0.000006	0.0
0.002590	0.000007	0.0
0.002802	0.000007	0.0
0.003035	0.000007	0.0
0.003292	0.000008	0.0
0.003577	0.000009	0.0
0.003894	0.000009	0.0
0.004248	0.000010	0.0
0.004646	0.000010	0.0
0.005093	0.000011	0.0
0.005601	0.000012	0.0
0.006178	0.000012	0.0
0.006840	0.000013	0.0
0.007604	0.000014	0.0
0.008492	0.000015	0.0
0.009531	0.000015	0.0
0.010760	0.000016	0.0
0.012225	0.000017	0.0
0.013992	0.000018	0.0
0.016149	0.000019	0.0
0.018818	0.000019	0.0
0.022168	0.000019	0.0
0.026449	0.000019	0.0
0.032026	0.000018	0.0
0.039463	0.000017	0.0
0.049658	0.000015	0.0
0.064131	0.000012	0.0
0.085688	0.000009	0.0
0.120299	0.000006	0.0
0.184642	0.000003	0.0
0.000002	-0.000000	0.0
0.000004	-0.000000	0.0
0.000006	-0.000000	0.0
0.000008	-0.000000	0.0
0.000010	-0.000000	0.0
0.000012	-0.000000	0.0
0.000014	-0.000000	0.0
0.000016	-0.000000	0.0
0.000019	-0.000000	0.0
0.000021	-0.000000	0.0
0.000024	-0.000000	0.0
0.000027	-0.000000	0.0
0.000030	-0.000000	0.0
0.000034	-0.000000	0.0
0.000037	-0.000000	0.0
0.000042	-0.000000	0.0
0.000046	-0.000000	0.0
0.000051	-0.000000	0.0
0.000056	-0.000000	0.0
0.000062	-0.000000	0.0
0.000068	-0.000000	0.0
0.000075	-0.000000	0.0
0.000082	-0.000000	0.0
0.000090	-0.000000	0.0
0.000098	-0.000000	0.0
0.000108	-0.000000	0.0
0.000118	-0.000000	0.0
0.000129	-0.000000	0.0
0.000140	-0.000000	0.0
0.000153	-0.000000	0.0
0.000166	0.000000	0.0
0.000181	0.000000	0.0
0.000197	0.000000	0.0
0.000214	0.000000	0.0
0.000232	0.000000	0.0
0.000251	0.000000	0.0
0.000272	0.000000	0.0
0.000295	0.000000	0.0
0.000319	0.000000	0.0
0.000345	0.000000	0.0
0.000373	0.000001	0.0
0.000403	0.000001	0.0
0.000435	0.000001	0.0
0.000469	0.000001	0.0
0.000506	0.000001	0.0
0.000545	0.000001	0.0
0.000587	0.000001	0.0
0.000632	0.000001	0.0
0.000680	0.000001	0.0
0.000732	0.000002	0.0
0.000787	0.000002	0.0
0.000846	0.000002	0.0
0.000909	0.000002	0.0
0.000976	0.000002	0.0
0.001049	0.000002	0.0
0.001127	0.000003	0.0
0.001210	0.000003	0.0
0.001300	0.000003	0.0
0.001396	0.000003	0.0
0.001499	0.000004	0.0
0.001611	0.000004	0.0
0.001731	0.000004	0.0
0.001860	0.000005	0.0
0.002000	0.000005	0.0
0.002152	0.000006	0.0
0.002316	0.000006	0.0
0.002495	0.000006	0.0
0.002689	0.000007	0.0
0.002901	0.000007	0.0
0.003132	0.000008	0.0
0.003387	0.000008	0.0
0.003666	0.000009	0.0
0.003974	0.000010	0.0
0.004315	0.000010	0.0
0.004694	0.000011	0.0
0.005116	0.000012	0.0
0.005588	0.000012	0.0
0.006119	0.000013	0.0
0.006719	0.000014	0.0
0.007401	0.000015	0.0
0.008180	0.000016	0.0
0.009076	0.000017	0.0
0.010112	0.000018	0.0
0.011321	0.000019	0.0
0.012741	0.000020	0.0
0.014425	0.000021	0.0
0.016442	0.000021	0.0
0.018883	0.000022	0.0
0.021874	0.000023	0.0
0.025588	0.000023	0.0
0.030272	0.000023	0.0
0.036286	0.000022	0.0
0.044170	0.000020	0.0
0.054779	0.000018	0.0
0.069546	0.000015	0.0
0.091129	0.000012	0.0
0.125258	0.000008	0.0
0.188202	0.000004	0.0
0.000003	-0.000000	0.0
0.000005	-0.000000	0.0
0.000007	-0.000000	0.0
0.000009	-0.000000	0.0
0.000012	-0.000000	0.0
0.000014	-0.000000	0.0
0.000016	-0.000000	0.0
0.000019	-0.000000	0.0
0.000022	-0.000000	0.0
0.000025	-0.000000	0.0
0.000028	-0.000000	0.0
0.000032	-0.000000	0.0
0.000035	-0.000000	0.0
0.000040	-0.000000	0.0
0.000044	-0.000000	0.0
0.000049	-0.000000	0.0
0.000054	-0.000000	0.0
0.000060	-0.000000	0.0
0.000066	-0.000000	0.0
0.000073	-0.000000	0.0
0.000080	-0.000000	0.0
0.000088	-0.000000	0.0
0.000097	-0.000000	0.0
0.000106	-0.000000	0.0
0.000116	-0.000000	0.0
0.000127	-0.000000	0.0
0.000139	-0.000000	0.0
0.000151	-0.000000	0.0
0.000165	-0.000000	0.0
0.000180	0.000000	0.0
0.000196	0.000000	0.0
0.000213	0.000000	0.0
0.000232	0.000000	0.0
0.000251	0.000000	0.0
0.000273	0.000000	0.0
0.000296	0.000000	0.0
0.000321	0.000000	0.0
0.000347	0.000000	0.0
0.000376	0.000001	0.0
0.000406	0.000001	0.0
0.000439	0.000001	0.0
0.000474	0.000001	0.0
0.000511	0.000001	0.0
0.000552	0.000001	0.0
0.000595	0.000001	0.0
0.000641	0.000001	0.0
0.000690	0.000001	0.0
0.000743	0.000002	0.0
0.000799	0.000002	0.0
0.000860	0.000002	0.0
0.000924	0.000002	0.0
0.000993	0.000002	0.0
0.001067	0.000002	0.0
0.001146	0.000003	0.0
0.001231	0.000003	0.0
0.001322	0.000003	0.0
0.001420	0.000004	0.0
0.001525	0.000004	0.0
0.001637	0.000004	0.0
0.001758	0.000004	0.0
0.001888	0.000005	0.0
0.002028	0.000005	0.0
0.002179	0.000006	0.0
0.002342	0.000006	0.0
0.002519	0.000007	0.0
0.002710	0.000007	0.0
0.002917	0.000008	0.0
0.003143	0.000008	0.0
0.003389	0.000009	0.0
0.003657	0.000009	0.0
0.003951	0.000010	0.0
0.004274	0.000011	0.0
0.004630	0.000011	0.0
0.005023	0.000012	0.0
0.005458	0.000013	0.0
0.005943	0.000014	0.0
0.006484	0.000014	0.0
0.007091	0.000015	0.0
0.007775	0.000016	0.0
0.008550	0.000017	0.0
0.009432	0.000018	0.0
0.010443	0.000019	0.0
0.011608	0.000020	0.0
0.012959	0.000022	0.0
0.014539	0.000023	0.0
0.016401	0.000024	0.0
0.018615	0.000025	0.0
0.021275	0.000026	0.0
0.024505	0.000026	0.0
0.028476	0.000026	0.0
0.033429	0.000026	0.0
0.039711	0.000025	0.0
0.047838	0.000023	0.0
0.058627	0.000021	0.0
0.073452	0.000018	0.0
0.094879	0.000014	0.0
0.128517	0.000010	0.0
0.190443	0.000006	0.0
0.000003	-0.000000	0.0
0.000006	-0.000000	0.0
0.000008	-0.000000	0.0
0.000011	-0.000000	0.0
0.000013	-0.000000	0.0
0.000016	-0.000000	0.0
0.000019	-0.000000	0.0
0.000022	-0.000000	0.0
0.000025	-0.000000	0.0
0.000029	-0.000000	0.0
0.000032	-0.000000	0.0
0.000036	-0.000000	0.0
0.000041	-0.000000	0.0
0.000046	-0.000000	0.0
0.000051	-0.000000	0.0
0.000056	-0.000000	0.0
0.000062	-0.000000	0.0
0.000069	-0.000000	0.0
0.000076	-0.000000	0.0
0.000084	-0.000000	0.0
0.000092	-0.000000	0.0
0.000101	-0.000000	0.0
0.000111	-0.000000	0.0
0.000122	-0.000000	0.0
0.000133	-0.000000	0.0
0.000146	-0.000000	0.0
0.000159	-0.000000	0.0
0.000174	-0.000000	0.0
0.000190	0.000000	0.0
0.000207	0.000000	0.0
0.000225	0.000000	0.0
0.000245	0.000000	0.0
0.000266	0.000000	0.0
0.000289	0.000000	0.0
0.000313	0.000000	0.0
0.000340	0.000000	0.0
0.000368	0.000000	0.0
0.000398	0.000001	0.0
0.000431	0.000001	0.0
0.000466	0.000001	0.0
0.000504	0.000001	0.0
0.000544	0.000001	0.0
0.000587	0.000001	0.0
0.000633	0.000001	0.0
0.000682	0.000001	0.0
0.000735	0.000002	0.0
0.000791	0.000002	0.0
0.000852	0.000002	0.0
0.000916	0.000002	0.0
0.000985	0.000002	0.0
0.001059	0.000002	0.0
0.001138	0.000003	0.0
0.001222	0.000003	0.0
0.001313	0.000003	0.0
0.001410	0.000003	0.0
0.001514	0.000004	0.0
0.001625	0.000004	0.0
0.001744	0.000004	0.0
0.001872	0.000005	0.0
0.002010	0.000005	0.0
0.002158	0.000006	0.0
0.002317	0.000006	0.0
0.002489	0.000007	0.0
0.002674	0.000007	0.0
0.002874	0.000008	0.0
0.003091	0.000008	0.0
0.003326	0.000009	0.0
0.003581	0.000009	0.0
0.003859	0.000010	0.0
0.004162	0.000011	0.0
0.004494	0.000011	0.0
0.004857	0.000012	0.0
0.005257	0.000013	0.0
0.005698	0.000014	0.0
0.006186	0.000015	0.0
0.006727	0.000016	0.0
0.007330	0.000016	0.0
0.008006	0.000017	0.0
0.008765	0.000018	0.0
0.009621	0.000020	0.0
0.010594	0.000021	0.0
0.011703	0.000022	0.0
0.012976	0.000023	0.0
0.014446	0.000024	0.0
0.016156	0.000026	0.0
0.018160	0.000027	0.0
0.020528	0.000028	0.0
0.023351	0.000029	0.0
0.026753	0.000029	0.0
0.030900	0.000030	0.0
0.036025	0.000029	0.0
0.042460	0.000028	0.0
0.050705	0.000027	0.0
0.061547	0.000024	0.0
0.076320	0.000020	0.0
0.097541	0.000016	0.0
0.130755	0.000012	0.0
0.191939	0.000007	0.0
0.000004	-0.000000	0.0
0.000007	-0.000000	0.0
0.000009	-0.000000	0.0
0.000012	-0.000000	0.0
0.000015	-0.000000	0.0
0.000018	-0.000000	0.0
0.000021	-0.000000	0.0
0.000025	-0.000000	0.0
0.000028	-0.000000	0.0
0.000032	-0.000000	0.0
0.000037	-0.000000	0.0
0.000041	-0.000000	0.0
0.000046	-0.000000	0.0
0.000051	-0.000000	0.0
0.000057	-0.000000	0.0
0.000063	-0.000000	0.0
0.000070	-0.000000	0.0
0.000078	-0.000000	0.0
0.000086	-0.000000	0.0
0.000094	-0.000000	0.0
0.000104	-0.000000	0.0
0.000114	-0.000000	0.0
0.000125	-0.000000	0.0
0.000137	-0.000000	0.0
0.000150	-0.000000	0.0
0.000164	-0.000000	0.0
0.000180	0.000000	0.0
0.000196	0.000000	0.0
0.000214	0.000000	0.0
0.000233	0.000000	0.0
0.000254	0.000000	0.0
0.000276	0.000000	0.0
0.000300	0.000000	0.0
0.000325	0.000000	0.0
0.000353	0.000000	0.0
0.000383	0.000001	0.0
0.000415	0.000001	0.0
0.000449	0.000001	0.0
0.000486	0.000001	0.0
0.000525	0.000001	0.0
0.000567	0.000001	0.0
0.000612	0.000001	0.0
0.000661	0.000001	0.0
0.000712	0.000001	0.0
0.000768	0.000002	0.0
0.000827	0.000002	0.0
0.000890	0.000002	0.0
0.000958	0.000002	0.0
0.001031	0.000002	0.0
0.001108	0.000003	0.0
0.001191	0.000003	0.0
0.001279	0.000003	0.0
0.001374	0.000003	0.0
0.001476	0.000004	0.0
0.001584	0.000004	0.0
0.001700	0.000004	0.0
0.001825	0.000005	0.0
0.001958	0.000005	0.0
0.002101	0.000005	0.0
0.002255	0.000006	0.0
0.002420	0.000006	0.0
0.002598	0.000007	0.0
0.002789	0.000007	0.0
0.002995	0.000008	0.0
0.003218	0.000009	0.0
0.003459	0.000009	0.0
0.003720	0.000010	0.0
0.004003	0.000011	0.0
0.004311	0.000011	0.0
0.004646	0.000012	0.0
0.005013	0.000013	0.0
0.005414	0.000014	0.0
0.005854	0.000015	0.0
0.006338	0.000015	0.0
0.006874	0.000016	0.0
0.007466	0.000017	0.0
0.008126	0.000018	0.0
0.008861	0.000020	0.0
0.009686	0.000021	0.0
0.010614	0.000022	0.0
0.011663	0.000023	0.0
0.012856	0.000024	0.0
0.014220	0.000026	0.0
0.015788	0.000027	0.0
0.017602	0.000028	0.0
0.019717	0.000030	0.0
0.022201	0.000031	0.0
0.025144	0.000032	0.0
0.028666	0.000032	0.0
0.032929	0.000033	0.0
0.038157	0.000032	0.0
0.044673	0.000031	0.0
0.052962	0.000029	0.0
0.063789	0.000026	0.0
0.078467	0.000023	0.0
0.099483	0.000018	0.0
0.132350	0.000013	0.0
0.192986	0.000008	0.0
0.000004	-0.000000	0.0
0.000007	-0.000000	0.0
0.000010	-0.000000	0.0
0.000013	-0.000000	0.0
0.000017	-0.000000	0.0
0.000020	-0.000000	0.0
0.000024	-0.000000	0.0
0.000028	-0.000000	0.0
0.000032	-0.000000	0.0
0.000036	-0.000000	0.0
0.000041	-0.000000	0.0
0.000046	-0.000000	0.0
0.000051	-0.000000	0.0
0.000057	-0.000000	0.0
0.000064	-0.000000	0.0
0.000071	-0.000000	0.0
0.000078	-0.000000	0.0
0.000086	-0.000000	0.0
0.000095	-0.000000	0.0
0.000105	-0.000000	0.0
0.000116	-0.000000	0.0
0.000127	-0.000000	0.0
0.000139	-0.000000	0.0
0.000153	0.000000	0.0
0.000167	0.000000	0.0
0.000183	0.000000	0.0
0.000200	0.000000	0.0
0.000218	0.000000	0.0
0.000238	0.000000	0.0
0.000259	0.000000	0.0
0.000282	0.000000	0.0
0.000306	0.000000	0.0
0.000333	0.000000	0.0
0.000362	0.000001	0.0
0.000392	0.000001	0.0
0.000425	0.000001	0.0
0.000461	0.000001	0.0
0.000499	0.000001	0.0
0.000539	0.000001	0.0
0.000583	0.000001	0.0
0.000630	0.000001	0.0
0.000680	0.000001	0.0
0.000733	0.000002	0.0
0.000790	0.000002	0.0
0.000852	0.000002	0.0
0.000917	0.000002	0.0
0.000987	0.000002	0.0
0.001062	0.000002	0.0
0.001142	0.000003	0.0
0.001228	0.000003	0.0
0.001320	0.000003	0.0
0.001417	0.000003	0.0
0.001522	0.000004	0.0
0.001634	0.000004	0.0
0.001754	0.000004	0.0
0.001882	0.000005	0.0
0.002019	0.000005	0.0
0.002166	0.000006	0.0
0.002323	0.000006	0.0
0.002492	0.000007	0.0
0.002674	0.000007	0.0
0.002869	0.000008	0.0
0.003079	0.000008	0.0
0.003305	0.000009	0.0
0.003549	0.000010	0.0
0.003813	0.000010	0.0
0.004098	0.000011	0.0
0.004407	0.000012	0.0
0.004743	0.000013	0.0
0.005108	0.000013	0.0
0.005507	0.000014	0.0
0.005942	0.000015	0.0
0.006419	0.000016	0.0
0.006944	0.000017	0.0
0.007521	0.000018	0.0
0.008160	0.000019	0.0
0.008869	0.000020	0.0
0.009658	0.000021	0.0
0.010539	0.000023	0.0
0.011529	0.000024	0.0
0.012644	0.000025	0.0
0.013907	0.000027	0.0
0.015345	0.000028	0.0
0.016991	0.000030	0.0
0.018888	0.000031	0.0
0.021088	0.000032	0.0
0.023658	0.000034	0.0
0.026688	0.000035	0.0
0.030291	0.000035	0.0
0.034627	0.000035	0.0
0.039913	0.000035	0.0
0.046464	0.000034	0.0
0.054753	0.000032	0.0
0.065534	0.000029	0.0
0.080104	0.000025	0.0
0.100936	0.000020	0.0
0.133522	0.000015	0.0
0.193746	0.000009	0.0
0.000005	-0.000000	0.0
0.000008	-0.000000	0.0
0.000011	-0.000000	0.0
0.000015	-0.000000	0.0
0.000018	-0.000000	0.0
0.000022	-0.000000	0.0
0.000026	-0.000000	0.0
0.000030	-0.000000	0.0
0.000035	-0.000000	0.0
0.000040	-0.000000	0.0
0.000045	-0.000000	0.0
0.000050	-0.000000	0.0
0.000056	-0.000000	0.0
0.000063	-0.000000	0.0
0.000070	-0.000000	0.0
0.000078	-0.000000	0.0
0.000086	-0.000000	0.0
0.000095	-0.000000	0.0
0.000105	-0.000000	0.0
0.000115	-0.000000	0.0
0.000127	-0.000000	0.0
0.000140	0.000000	0.0
0.000153	0.000000	0.0
0.000168	0.000000	0.0
0.000184	0.000000	0.0
0.000201	0.000000	0.0
0.000219	0.000000	0.0
0.000239	0.000000	0.0
0.000261	0.000000	0.0
0.000284	0.000000	0.0
0.000309	0.000000	0.0
0.000337	0.000000	0.0
0.000366	0.000001	0.0
0.000397	0.000001	0.0
0.000431	0.000001	0.0
0.000467	0.000001	0.0
0.000505	0.000001	0.0
0.000547	0.000001	0.0
0.000592	0.000001	0.0
0.000639	0.000001	0.0
0.000691	0.000001	0.0
0.000745	0.000002	0.0
0.000804	0.000002	0.0
0.000867	0.000002	0.0
0.000934	0.000002	0.0
0.001005	0.000002	0.0
0.001082	0.000003	0.0
0.001164	0.000003	0.0
0.001251	0.000003	0.0
0.001345	0.000003	0.0
0.001445	0.000004	0.0
0.001552	0.000004	0.0
0.001666	0.000004	0.0
0.001788	0.000005	0.0
0.001918	0.000005	0.0
0.002058	0.000005	0.0
0.002207	0.000006	0.0
0.002367	0.000006	0.0
0.002538	0.000007	0.0
0.002722	0.000007	0.0
0.002919	0.000008	0.0
0.003130	0.000008	0.0
0.003358	0.000009	0.0
0.003603	0.000010	0.0
0.003867	0.000010	0.0
0.004152	0.000011	0.0
0.004459	0.000012	0.0
0.004793	0.000013	0.0
0.005154	0.000014	0.0
0.005547	0.000015	0.0
0.005975	0.000016	0.0
0.006442	0.000017	0.0
0.006953	0.000018	0.0
0.007513	0.000019	0.0
0.008129	0.000020	0.0
0.008808	0.000021	0.0
0.009561	0.000022	0.0
0.010396	0.000023	0.0
0.011327	0.000025	0.0
0.012368	0.000026	0.0
0.013538	0.000027	0.0
0.014860	0.000029	0.0
0.016358	0.000030	0.0
0.018067	0.000032	0.0
0.020028	0.000033	0.0
0.022292	0.000035	0.0
0.024926	0.000036	0.0
0.028015	0.000037	0.0
0.031672	0.000038	0.0
0.036051	0.000038	0.0
0.041365	0.000038	0.0
0.047922	0.000036	0.0
0.056188	0.000034	0.0
0.066910	0.000031	0.0
0.081374	0.000027	0.0
0.102045	0.000022	0.0
0.134406	0.000016	0.0
0.194313	0.000010	0.0
0.000005	-0.000000	0.0
0.000009	-0.000000	0.0
0.000012	-0.000000	0.0
0.000016	-0.000000	0.0
0.000020	-0.000000	0.0
0.000024	-0.000000	0.0
0.000028	-0.000000	0.0
0.000033	-0.000000	0.0
0.000038	-0.000000	0.0
0.000043	-0.000000	0.0
0.000049	-0.000000	0.0
0.000055	-0.000000	0.0
0.000061	-0.000000	0.0
0.000068	-0.000000	0.0
0.000076	-0.000000	0.0
0.000085	-0.000000	0.0
0.000094	-0.000000	0.0
0.000103	-0.000000	0.0
0.000114	-0.000000	0.0
0.000126	0.000000	0.0
0.000138	0.000000	0.0
0.000152	0.000000	0.0
0.000167	0.000000	0.0
0.000183	0.000000	0.0
0.000200	0.000000	0.0
0.000219	0.000000	0.0
0.000239	0.000000	0.0
0.000260	0.000000	0.0
0.000284	0.000000	0.0
0.000309	0.000000	0.0
0.000337	0.000001	0.0
0.000366	0.000001	0.0
0.000398	0.000001	0.0
0.000432	0.000001	0.0
0.000468	0.000001	0.0
0.000507	0.000001	0.0
0.000549	0.000001	0.0
0.000595	0.000001	0.0
0.000643	0.000001	0.0
0.000695	0.000001	0.0
0.000750	0.000002	0.0
0.000810	0.000002	0.0
0.000873	0.000002	0.0
0.000941	0.000002	0.0
0.001014	0.000002	0.0
0.001091	0.000003	0.0
0.001174	0.000003	0.0
0.001263	0.000003	0.0
0.001357	0.000003	0.0
0.001458	0.000004	0.0
0.001566	0.000004	0.0
0.001682	0.000004	0.0
0.001805	0.000005	0.0
0.001937	0.000005	0.0
0.002077	0.000005	0.0
0.002228	0.000006	0.0
0.002388	0.000006	0.0
0.002561	0.000007	0.0
0.002745	0.000007	0.0
0.002942	0.000008	0.0
0.003154	0.000009	0.0
0.003381	0.000009	0.0
0.003625	0.000010	0.0
0.003888	0.000011	0.0
0.004170	0.000011	0.0
0.004475	0.000012	0.0
0.004804	0.000013	0.0
0.005160	0.000014	0.0
0.005545	0.000015	0.0
0.005963	0.000016	0.0
0.006418	0.000017	0.0
0.006913	0.000018	0.0
0.007454	0.000019	0.0
0.008046	0.000020	0.0
0.008696	0.000021	0.0
0.009412	0.000023	0.0
0.010202	0.000024	0.0
0.011077	0.000025	0.0
0.012050	0.000027	0.0
0.013136	0.000028	0.0
0.014352	0.000029	0.0
0.015721	0.000031	0.0
0.017268	0.000032	0.0
0.019026	0.000034	0.0
0.021036	0.000036	0.0
0.023349	0.000037	0.0
0.026027	0.000038	0.0
0.029157	0.000039	0.0
0.032847	0.000040	0.0
0.037248	0.000040	0.0
0.042570	0.000040	0.0
0.049117	0.000039	0.0
0.057349	0.000036	0.0
0.068008	0.000033	0.0
0.082375	0.000029	0.0
0.102909	0.000023	0.0
0.135087	0.000018	0.0
0.194748	0.000011	0.0
0.000006	0.000000	0.0
0.000009	0.000000	0.0
0.000013	-0.000000	0.0
0.000017	-0.000000	0.0
0.000022	-0.000000	0.0
0.000026	-0.000000	0.0
0.000031	-0.000000	0.0
0.000036	-0.000000	0.0
0.000041	-0.000000	0.0
0.000047	-0.000000	0.0
0.000053	-0.000000	0.0
0.000059	-0.000000	0.0
0.000066	-0.000000	0.0
0.000074	-0.000000	0.0
0.000082	-0.000000	0.0
0.000091	-0.000000	0.0
0.000101	0.000000	0.0
0.000112	0.000000	0.0
0.000123	0.000000	0.0
0.000136	0.000000	0.0
0.000149	0.000000	0.0
0.000164	0.000000	0.0
0.000180	0.000000	0.0
0.000197	0.000000	0.0
0.000216	0.000000	0.0
0.000236	0.000000	0.0
0.000258	0.000000	0.0
0.000281	0.000000	0.0
0.000306	0.000000	0.0
0.000334	0.000001	0.0
0.000363	0.000001	0.0
0.000395	0.000001	0.0
0.000429	0.000001	0.0
0.000465	0.000001	0.0
0.000505	0.000001	0.0
0.000547	0.000001	0.0
0.000592	0.000001	0.0
0.000641	0.000001	0.0
0.000693	0.000002	0.0
0.000749	0.000002	0.0
0.000808	0.000002	0.0
0.000872	0.000002	0.0
0.000940	0.000002	0.0
0.001013	0.000002	0.0
0.001091	0.000003	0.0
0.001175	0.000003	0.0
0.001264	0.000003	0.0
0.001359	0.000003	0.0
0.001460	0.000004	0.0
0.001569	0.000004	0.0
0.001684	0.000004	0.0
0.001808	0.000005	0.0
0.001940	0.000005	0.0
0.002080	0.000005	0.0
0.002231	0.000006	0.0
0.002392	0.000006	0.0
0.002564	0.000007	0.0
0.002747	0.000007	0.0
0.002944	0.000008	0.0
0.003154	0.000009	0.0
0.003380	0.000009	0.0
0.003622	0.000010	0.0
0.003881	0.000011	0.0
0.004160	0.000011	0.0
0.004460	0.000012	0.0
0.004783	0.000013	0.0
0.005132	0.000014	0.0
0.005508	0.000015	0.0
0.005915	0.000016	0.0
0.006356	0.000017	0.0
0.006835	0.000018	0.0
0.007356	0.000019	0.0
0.007924	0.000020	0.0
0.008545	0.000022	0.0
0.009225	0.000023	0.0
0.009972	0.000024	0.0
0.010795	0.000025	0.0
0.011704	0.000027	0.0
0.012713	0.000028	0.0
0.013836	0.000030	0.0
0.015090	0.000031	0.0
0.016497	0.000033	0.0
0.018083	0.000034	0.0
0.019880	0.000036	0.0
0.021927	0.000038	0.0
0.024274	0.000039	0.0
0.026984	0.000040	0.0
0.030140	0.000041	0.0
0.033848	0.000042	0.0
0.038259	0.000042	0.0
0.043577	0.000042	0.0
0.050104	0.000041	0.0
0.058297	0.000038	0.0
0.068894	0.000035	0.0
0.083174	0.000030	0.0
0.103593	0.000025	0.0
0.135622	0.000019	0.0
0.195087	0.000012	0.0
0.000006	0.000000	0.0
0.000010	0.000000	0.0
0.000014	0.000000	0.0
0.000019	0.000000	0.0
0.000023	-0.000000	0.0
0.000028	-0.000000	0.0
0.000033	-0.000000	0.0
0.000038	-0.000000	0.0
0.000044	-0.000000	0.0
0.000050	-0.000000	0.0
0.000056	-0.000000	0.0
0.000064	-0.000000	0.0
0.000071	0.000000	0.0
0.000079	0.000000	0.0
0.000088	0.000000	0.0
0.000098	0.000000	0.0
0.000108	0.000000	0.0
0.000120	0.000000	0.0
0.000132	0.000000	0.0
0.000146	0.000000	0.0
0.000160	0.000000	0.0
0.000176	0.000000	0.0
0.000193	0.000000	0.0
0.000211	0.000000	0.0
0.000231	0.000000	0.0
0.000253	0.000000	0.0
0.000276	0.000000	0.0
0.000301	0.000001	0.0
0.000328	0.000001	0.0
0.000358	0.000001	0.0
0.000389	0.000001	0.0
0.000423	0.000001	0.0
0.000459	0.000001	0.0
0.000498	0.000001	0.0
0.000540	0.000001	0.0
0.000586	0.000001	0.0
0.000634	0.000001	0.0
0.000686	0.000002	0.0
0.000741	0.000002	0.0
0.000801	0.000002	0.0
0.000865	0.000002	0.0
0.000933	0.000002	0.0
0.001006	0.000002	0.0
0.001083	0.000003	0.0
0.001167	0.000003	0.0
0.001255	0.000003	0.0
0.001350	0.000003	0.0
0.001452	0.000004	0.0
0.001560	0.000004	0.0
0.001675	0.000004	0.0
0.001798	0.000005	0.0
0.001929	0.000005	0.0
0.002070	0.000005	0.0
0.002219	0.000006	0.0
0.002379	0.000006	0.0
0.002550	0.000007	0.0
0.002732	0.000007	0.0
0.002927	0.000008	0.0
0.003135	0.000009	0.0
0.003358	0.000009	0.0
0.003596	0.000010	0.0
0.003852	0.000011	0.0
0.004126	0.000011	0.0
0.004420	0.000012	0.0
0.004736	0.000013	0.0
0.005076	0.000014	0.0
0.005442	0.000015	0.0
0.005837	0.000016	0.0
0.006264	0.000017	0.0
0.006726	0.000018	0.0
0.007227	0.000019	0.0
0.007771	0.000020	0.0
0.008363	0.000022	0.0
0.009009	0.000023	0.0
0.009715	0.000024	0.0
0.010490	0.000026	0.0
0.011341	0.000027	0.0
0.012280	0.000028	0.0
0.013319	0.000030	0.0
0.014472	0.000031	0.0
0.015758	0.000033	0.0
0.017196	0.000035	0.0
0.018813	0.000036	0.0
0.020639	0.000038	0.0
0.022714	0.000039	0.0