# vtk DataFile Version 3.0
Header
ASCII
DATASET RECTILINEAR_GRID
DIMENSIONS 98 98 1
X_COORDINATES 98 double
0.030000 0.050000 0.070000 0.090000 0.110000 0.130000 0.150000 0.170000 0.190000 0.210000 0.230000 0.250000 0.270000 0.290000 0.310000 0.330000 0.350000 0.370000 0.390000 0.410000 0.430000 0.450000 0.470000 0.490000 0.510000 0.530000 0.550000 0.570000 0.590000 0.610000 0.630000 0.650000 0.670000 0.690000 0.710000 0.730000 0.750000 0.770000 0.790000 0.810000 0.830000 0.850000 0.870000 0.890000 0.910000 0.930000 0.950000 0.970000 0.990000 1.010000 1.030000 1.050000 1.070000 1.090000 1.110000 1.130000 1.150000 1.170000 1.190000 1.210000 1.230000 1.250000 1.270000 1.290000 1.310000 1.330000 1.350000 1.370000 1.390000 1.410000 1.430000 1.450000 1.470000 1.490000 1.510000 1.530000 1.550000 1.570000 1.590000 1.610000 1.630000 1.650000 1.670000 1.690000 1.710000 1.730000 1.750000 1.770000 1.790000 1.810000 1.830000 1.850000 1.870000 1.890000 1.910000 1.930000 1.950000 1.970000 
Y_COORDINATES 98 double
0.030000 0.050000 0.070000 0.090000 0.110000 0.130000 0.150000 0.170000 0.190000 0.210000 0.230000 0.250000 0.270000 0.290000 0.310000 0.330000 0.350000 0.370000 0.390000 0.410000 0.430000 0.450000 0.470000 0.490000 0.510000 0.530000 0.550000 0.570000 0.590000 0.610000 0.630000 0.650000 0.670000 0.690000 0.710000 0.730000 0.750000 0.770000 0.790000 0.810000 0.830000 0.850000 0.870000 0.890000 0.910000 0.930000 0.950000 0.970000 0.990000 1.010000 1.030000 1.050000 1.070000 1.090000 1.110000 1.130000 1.150000 1.170000 1.190000 1.210000 1.230000 1.250000 1.270000 1.290000 1.310000 1.330000 1.350000 1.370000 1.390000 1.410000 1.430000 1.450000 1.470000 1.490000 1.510000 1.530000 1.550000 1.570000 1.590000 1.610000 1.630000 1.650000 1.670000 1.690000 1.710000 1.730000 1.750000 1.770000 1.790000 1.810000 1.830000 1.850000 1.870000 1.890000 1.910000 1.930000 1.950000 1.970000 
Z_COORDINATES 1 double
0.0
POINT_DATA 9604
VECTORS velocity double
0.000003	0.000003	0.0
0.000001	0.000000	0.0
0.000001	-0.000000	0.0
0.000001	-0.000000	0.0
0.000001	-0.000000	0.0
0.000001	-0.000000	0.0
0.000001	-0.000000	0.0
0.000001	-0.000000	0.0
0.000002	-0.000000	0.0
0.000002	-0.000000	0.0
0.000002	-0.000000	0.0
0.000003	-0.000000	0.0
0.000003	-0.000000	0.0
0.000003	-0.000000	0.0
0.000004	-0.000000	0.0
0.000005	-0.000000	0.0
0.000005	-0.000000	0.0
0.000006	-0.000000	0.0
0.000007	-0.000000	0.0
0.000007	-0.000000	0.0
0.000008	-0.000000	0.0
0.000009	-0.000000	0.0
0.000011	-0.000000	0.0
0.000012	-0.000000	0.0
0.000013	-0.000000	0.0
0.000015	-0.000000	0.0
0.000017	-0.000000	0.0
0.000019	-0.000000	0.0
0.000021	-0.000000	0.0
0.000023	-0.000000	0.0
0.000026	-0.000000	0.0
0.000029	-0.000000	0.0
0.000032	-0.000000	0.0
0.000035	-0.000000	0.0
0.000039	-0.000000	0.0
0.000043	-0.000000	0.0
0.000047	-0.000000	0.0
0.000052	-0.000000	0.0
0.000058	-0.000000	0.0
0.000063	-0.000000	0.0
0.000070	-0.000000	0.0
0.000077	-0.000000	0.0
0.000084	-0.000000	0.0
0.000092	-0.000000	0.0
0.000101	-0.000000	0.0
0.000110	-0.000000	0.0
0.000121	-0.000000	0.0
0.000132	-0.000000	0.0
0.000144	-0.000000	0.0
0.000157	-0.000000	0.0
0.000171	-0.000000	0.0
0.000186	-0.000000	0.0
0.000203	-0.000000	0.0
0.000220	-0.000000	0.0
0.000240	-0.000000	0.0
0.000260	-0.000000	0.0
0.000283	-0.000000	0.0
0.000307	-0.000000	0.0
0.000333	-0.000000	0.0
0.000362	-0.000000	0.0
0.000393	-0.000000	0.0
0.000426	-0.000000	0.0
0.000462	-0.000000	0.0
0.000501	-0.000000	0.0
0.000544	-0.000000	0.0
0.000591	-0.000000	0.0
0.000642	-0.000000	0.0
0.000697	-0.000000	0.0
0.000758	-0.000000	0.0
0.000825	-0.000000	0.0
0.000899	0.000000	0.0
0.000980	0.000000	0.0
0.001070	0.000000	0.0
0.001171	0.000000	0.0
0.001283	0.000000	0.0
0.001408	0.000001	0.0
0.001549	0.000001	0.0
0.001709	0.000001	0.0
0.001890	0.000001	0.0
0.002099	0.000001	0.0
0.002339	0.000002	0.0
0.002617	0.000002	0.0
0.002944	0.000002	0.0
0.003331	0.000003	0.0
0.003793	0.000003	0.0
0.004352	0.000004	0.0
0.005038	0.000004	0.0
0.005892	0.000004	0.0
0.006977	0.000005	0.0
0.008383	0.000005	0.0
0.010254	0.000006	0.0
0.012821	0.000006	0.0
0.016481	0.000007	0.0
0.021959	0.000007	0.0
0.030689	0.000007	0.0
0.045792	0.000006	0.0
0.074987	0.000006	0.0
0.141654	0.000006	0.0
0.000001	0.000001	0.0
0.000001	-0.000000	0.0
0.000001	-0.000000	0.0
0.000001	0.000000	0.0
0.000002	-0.000000	0.0
0.000002	-0.000000	0.0
0.000002	-0.000000	0.0
0.000003	-0.000000	0.0
0.000003	-0.000000	0.0
0.000003	-0.000000	0.0
0.000004	-0.000000	0.0
0.000004	-0.000000	0.0
0.000005	-0.000000	0.0
0.000006	-0.000000	0.0
0.000007	-0.000000	0.0
0.000008	-0.000000	0.0
0.000009	-0.000000	0.0
0.000010	-0.000000	0.0
0.000011	-0.000000	0.0
0.000012	-0.000000	0.0
0.000014	-0.000000	0.0
0.000016	-0.000000	0.0
0.000018	-0.000000	0.0
0.000020	-0.000000	0.0
0.000022	-0.000000	0.0
0.000025	-0.000000	0.0
0.000028	-0.000000	0.0
0.000031	-0.000000	0.0
0.000035	-0.000000	0.0
0.000039	-0.000000	0.0
0.000043	-0.000000	0.0
0.000048	-0.000000	0.0
0.000053	-0.000000	0.0
0.000059	-0.000000	0.0
0.000065	-0.000000	0.0
0.000072	-0.000000	0.0
0.000079	-0.000000	0.0
0.000087	-0.000000	0.0
0.000096	-0.000000	0.0
0.000106	-0.000000	0.0
0.000116	-0.000000	0.0
0.000127	-0.000000	0.0
0.000140	-0.000000	0.0
0.000153	-0.000000	0.0
0.000168	-0.000000	0.0
0.000184	-0.000000	0.0
0.000201	-0.000000	0.0
0.000219	-0.000000	0.0
0.000239	-0.000000	0.0
0.000261	-0.000000	0.0
0.000284	-0.000000	0.0
0.000310	-0.000000	0.0
0.000337	-0.000000	0.0
0.000366	-0.000000	0.0
0.000398	-0.000000	0.0
0.000433	-0.000000	0.0
0.000470	-0.000000	0.0
0.000510	-0.000000	0.0
0.000554	-0.000000	0.0
0.000601	-0.000000	0.0
0.000652	-0.000000	0.0
0.000708	-0.000000	0.0
0.000768	-0.000000	0.0
0.000833	-0.000000	0.0
0.000904	0.000000	0.0
0.000981	0.000000	0.0
0.001066	0.000000	0.0
0.001158	0.000000	0.0
0.001258	0.000000	0.0
0.001369	0.000000	0.0
0.001491	0.000001	0.0
0.001626	0.000001	0.0
0.001775	0.000001	0.0
0.001940	0.000001	0.0
0.002124	0.000001	0.0
0.002331	0.000002	0.0
0.002563	0.000002	0.0
0.002826	0.000002	0.0
0.003124	0.000003	0.0
0.003466	0.000003	0.0
0.003859	0.000003	0.0
0.004314	0.000004	0.0
0.004847	0.000004	0.0
0.005475	0.000005	0.0
0.006224	0.000006	0.0
0.007127	0.000006	0.0
0.008229	0.000007	0.0
0.009595	0.000008	0.0
0.011315	0.000008	0.0
0.013525	0.000009	0.0
0.016429	0.000010	0.0
0.020347	0.000011	0.0
0.025807	0.000011	0.0
0.033712	0.000012	0.0
0.045716	0.000011	0.0
0.065068	0.000011	0.0
0.098920	0.000011	0.0
0.166885	0.000010	0.0
0.000001	0.000000	0.0
0.000001	0.000000	0.0
0.000001	0.000000	0.0
0.000002	0.000000	0.0
0.000002	0.000000	0.0
0.000003	-0.000000	0.0
0.000003	-0.000000	0.0
0.000004	-0.000000	0.0
0.000004	-0.000000	0.0
0.000005	-0.000000	0.0
0.000005	-0.000000	0.0
0.000006	-0.000000	0.0
0.000007	-0.000000	0.0
0.000008	-0.000000	0.0
0.000009	-0.000000	0.0
0.000011	-0.000000	0.0
0.000012	-0.000000	0.0
0.000014	-0.000000	0.0
0.000015	-0.000000	0.0
0.000017	-0.000000	0.0
0.000020	-0.000000	0.0
0.000022	-0.000000	0.0
0.000025	-0.000000	0.0
0.000028	-0.000000	0.0
0.000031	-0.000000	0.0
0.000035	-0.000000	0.0
0.000039	-0.000000	0.0
0.000044	-0.000000	0.0
0.000049	-0.000000	0.0
0.000054	-0.000000	0.0
0.000060	-0.000000	0.0
0.000067	-0.000000	0.0
0.000074	-0.000000	0.0
0.000082	-0.000000	0.0
0.000091	-0.000000	0.0
0.000100	-0.000000	0.0
0.000110	-0.000000	0.0
0.000122	-0.000000	0.0
0.000134	-0.000000	0.0
0.000148	-0.000000	0.0
0.000162	-0.000000	0.0
0.000178	-0.000000	0.0
0.000195	-0.000000	0.0
0.000214	-0.000000	0.0
0.000234	-0.000000	0.0
0.000256	-0.000000	0.0
0.000280	-0.000000	0.0
0.000306	-0.000000	0.0
0.000334	-0.000000	0.0
0.000364	-0.000000	0.0
0.000397	-0.000000	0.0
0.000432	-0.000000	0.0
0.000470	-0.000000	0.0
0.000511	-0.000000	0.0
0.000556	-0.000000	0.0
0.000604	-0.000000	0.0
0.000656	-0.000000	0.0
0.000712	-0.000000	0.0
0.000772	-0.000000	0.0
0.000838	-0.000000	0.0
0.000909	-0.000000	0.0
0.000986	-0.000000	0.0
0.001070	0.000000	0.0
0.001160	0.000000	0.0
0.001259	0.000000	0.0
0.001366	0.000000	0.0
0.001483	0.000000	0.0
0.001611	0.000000	0.0
0.001750	0.000001	0.0
0.001904	0.000001	0.0
0.002073	0.000001	0.0
0.002259	0.000001	0.0
0.002464	0.000001	0.0
0.002693	0.000002	0.0
0.002947	0.000002	0.0
0.003231	0.000002	0.0
0.003551	0.000003	0.0
0.003911	0.000003	0.0
0.004320	0.000004	0.0
0.004787	0.000004	0.0
0.005323	0.000005	0.0
0.005943	0.000005	0.0
0.006666	0.000006	0.0
0.007516	0.000007	0.0
0.008524	0.000008	0.0
0.009733	0.000009	0.0
0.011200	0.000010	0.0
0.013004	0.000011	0.0
0.015256	0.000012	0.0
0.018116	0.000013	0.0
0.021820	0.000014	0.0
0.026729	0.000015	0.0
0.033409	0.000015	0.0
0.042791	0.000016	0.0
0.056493	0.000016	0.0
0.077539	0.000015	0.0
0.112354	0.000014	0.0
0.178526	0.000013	0.0
0.000001	0.000000	0.0
0.000001	0.000000	0.0
0.000002	0.000000	0.0
0.000002	0.000000	0.0
0.000003	-0.000000	0.0
0.000003	-0.000000	0.0
0.000004	-0.000000	0.0
0.000005	-0.000000	0.0
0.000005	-0.000000	0.0
0.000006	-0.000000	0.0
0.000007	-0.000000	0.0
0.000008	-0.000000	0.0
0.000009	-0.000000	0.0
0.000011	-0.000000	0.0
0.000012	-0.000000	0.0
0.000014	-0.000000	0.0
0.000016	-0.000000	0.0
0.000018	-0.000000	0.0
0.000020	-0.000000	0.0
0.000022	-0.000000	0.0
0.000025	-0.000000	0.0
0.000028	-0.000000	0.0
0.000032	-0.000000	0.0
0.000036	-0.000000	0.0
0.000040	-0.000000	0.0
0.000045	-0.000000	0.0
0.000050	-0.000000	0.0
0.000056	-0.000000	0.0
0.000062	-0.000000	0.0
0.000069	-0.000000	0.0
0.000077	-0.000000	0.0
0.000085	-0.000000	0.0
0.000095	-0.000000	0.0
0.000105	-0.000000	0.0
0.000116	-0.000000	0.0
0.000128	-0.000000	0.0
0.000142	-0.000000	0.0
0.000156	-0.000000	0.0
0.000172	-0.000000	0.0
0.000189	-0.000000	0.0
0.000208	-0.000000	0.0
0.000228	-0.000000	0.0
0.000250	-0.000000	0.0
0.000274	-0.000000	0.0
0.000300	-0.000000	0.0
0.000328	-0.000000	0.0
0.000359	-0.000000	0.0
0.000392	-0.000000	0.0
0.000427	-0.000000	0.0
0.000466	-0.000000	0.0
0.000508	-0.000000	0.0
0.000553	-0.000000	0.0
0.000602	-0.000000	0.0
0.000654	-0.000000	0.0
0.000711	-0.000000	0.0
0.000772	-0.000000	0.0
0.000838	-0.000000	0.0
0.000910	-0.000000	0.0
0.000987	-0.000000	0.0
0.001071	-0.000000	0.0
0.001162	-0.000000	0.0
0.001260	0.000000	0.0
0.001366	0.000000	0.0
0.001482	0.000000	0.0
0.001607	0.000000	0.0
0.001743	0.000000	0.0
0.001892	0.000000	0.0
0.002054	0.000001	0.0
0.002232	0.000001	0.0
0.002426	0.000001	0.0
0.002640	0.000001	0.0
0.002875	0.000001	0.0
0.003135	0.000002	0.0
0.003423	0.000002	0.0
0.003744	0.000002	0.0
0.004102	0.000003	0.0
0.004503	0.000003	0.0
0.004956	0.000004	0.0
0.005468	0.000005	0.0
0.006050	0.000005	0.0
0.006718	0.000006	0.0
0.007487	0.000007	0.0
0.008381	0.000008	0.0
0.009427	0.000009	0.0
0.010661	0.000010	0.0
0.012134	0.000011	0.0
0.013908	0.000012	0.0
0.016072	0.000013	0.0
0.018748	0.000015	0.0
0.022106	0.000016	0.0
0.026394	0.000017	0.0
0.031979	0.000018	0.0
0.039424	0.000019	0.0
0.049627	0.000019	0.0
0.064108	0.000019	0.0
0.085671	0.000018	0.0
0.120290	0.000017	0.0
0.184641	0.000015	0.0
0.000001	0.000000	0.0
0.000002	0.000000	0.0
0.000002	0.000000	0.0
0.000003	0.000000	0.0
0.000003	-0.000000	0.0
0.000004	-0.000000	0.0
0.000005	-0.000000	0.0
0.000006	-0.000000	0.0
0.000006	-0.000000	0.0
0.000007	-0.000000	0.0
0.000009	-0.000000	0.0
0.000010	-0.000000	0.0
0.000011	-0.000000	0.0
0.000013	-0.000000	0.0
0.000015	-0.000000	0.0
0.000017	-0.000000	0.0
0.000019	-0.000000	0.0
0.000022	-0.000000	0.0
0.000024	-0.000000	0.0
0.000027	-0.000000	0.0
0.000031	-0.000000	0.0
0.000035	-0.000000	0.0
0.000039	-0.000000	0.0
0.000044	-0.000000	0.0
0.000049	-0.000000	0.0
0.000055	-0.000000	0.0
0.000061	-0.000000	0.0
0.000068	-0.000000	0.0
0.000076	-0.000000	0.0
0.000084	-0.000000	0.0
0.000094	-0.000000	0.0
0.000104	-0.000000	0.0
0.000115	-0.000000	0.0
0.000128	-0.000000	0.0
0.000141	-0.000000	0.0
0.000156	-0.000000	0.0
0.000172	-0.000000	0.0
0.000190	-0.000000	0.0
0.000209	-0.000000	0.0
0.000230	-0.000000	0.0
0.000253	-0.000000	0.0
0.000278	-0.000000	0.0
0.000304	-0.000000	0.0
0.000334	-0.000000	0.0
0.000365	-0.000000	0.0
0.000399	-0.000000	0.0
0.000436	-0.000000	0.0
0.000476	-0.000000	0.0
0.000520	-0.000000	0.0
0.000567	-0.000000	0.0
0.000617	-0.000000	0.0
0.000672	-0.000000	0.0
0.000731	-0.000000	0.0
0.000795	-0.000000	0.0
0.000864	-0.000000	0.0
0.000938	-0.000000	0.0
0.001018	-0.000000	0.0
0.001105	-0.000000	0.0
0.001199	-0.000000	0.0
0.001300	0.000000	0.0
0.001409	0.000000	0.0
0.001528	0.000000	0.0
0.001657	0.000000	0.0
0.001796	0.000000	0.0
0.001947	0.000000	0.0
0.002112	0.000001	0.0
0.002291	0.000001	0.0
0.002486	0.000001	0.0
0.002699	0.000001	0.0
0.002933	0.000001	0.0
0.003190	0.000002	0.0
0.003472	0.000002	0.0
0.003783	0.000002	0.0
0.004128	0.000003	0.0
0.004511	0.000003	0.0
0.004937	0.000004	0.0
0.005415	0.000004	0.0
0.005952	0.000005	0.0
0.006558	0.000006	0.0
0.007246	0.000007	0.0
0.008031	0.000007	0.0
0.008934	0.000008	0.0
0.009977	0.000010	0.0
0.011193	0.000011	0.0
0.012621	0.000012	0.0
0.014313	0.000013	0.0
0.016339	0.000015	0.0
0.018788	0.000016	0.0
0.021788	0.000017	0.0
0.025512	0.000019	0.0
0.030205	0.000020	0.0
0.036228	0.000021	0.0
0.044122	0.000022	0.0
0.054740	0.000023	0.0
0.069517	0.000022	0.0
0.091108	0.000021	0.0
0.125245	0.000020	0.0
0.188198	0.000017	0.0
0.000001	0.000000	0.0
0.000002	0.000000	0.0
0.000002	0.000000	0.0
0.000003	0.000000	0.0
0.000004	-0.000000	0.0
0.000005	-0.000000	0.0
0.000006	-0.000000	0.0
0.000007	-0.000000	0.0
0.000008	-0.000000	0.0
0.000009	-0.000000	0.0
0.000010	-0.000000	0.0
0.000012	-0.000000	0.0
0.000013	-0.000000	0.0
0.000015	-0.000000	0.0
0.000017	-0.000000	0.0
0.000020	-0.000000	0.0
0.000022	-0.000000	0.0
0.000025	-0.000000	0.0
0.000029	-0.000000	0.0
0.000032	-0.000000	0.0
0.000036	-0.000000	0.0
0.000041	-0.000000	0.0
0.000046	-0.000000	0.0
0.000051	-0.000000	0.0
0.000058	-0.000000	0.0
0.000064	-0.000000	0.0
0.000072	-0.000000	0.0
0.000080	-0.000000	0.0
0.000089	-0.000000	0.0
0.000099	-0.000000	0.0
0.000110	-0.000000	0.0
0.000123	-0.000000	0.0
0.000136	-0.000000	0.0
0.000150	-0.000000	0.0
0.000166	-0.000000	0.0
0.000184	-0.000000	0.0
0.000203	-0.000000	0.0
0.000223	-0.000000	0.0
0.000246	-0.000000	0.0
0.000271	-0.000000	0.0
0.000297	-0.000000	0.0
0.000326	-0.000000	0.0
0.000358	-0.000000	0.0
0.000392	-0.000000	0.0
0.000429	-0.000000	0.0
0.000469	-0.000000	0.0
0.000513	-0.000000	0.0
0.000560	-0.000000	0.0
0.000611	-0.000000	0.0
0.000665	-0.000000	0.0
0.000725	-0.000000	0.0
0.000789	-0.000000	0.0
0.000858	-0.000000	0.0
0.000933	-0.000000	0.0
0.001013	-0.000000	0.0
0.001100	-0.000000	0.0
0.001194	-0.000000	0.0
0.001296	0.000000	0.0
0.001405	0.000000	0.0
0.001523	0.000000	0.0
0.001651	0.000000	0.0
0.001790	0.000000	0.0
0.001940	0.000000	0.0
0.002102	0.000001	0.0
0.002278	0.000001	0.0
0.002469	0.000001	0.0
0.002678	0.000001	0.0
0.002904	0.000001	0.0
0.003152	0.000001	0.0
0.003423	0.000002	0.0
0.003720	0.000002	0.0
0.004046	0.000002	0.0
0.004406	0.000003	0.0
0.004803	0.000003	0.0
0.005243	0.000004	0.0
0.005733	0.000004	0.0
0.006281	0.000005	0.0
0.006894	0.000006	0.0
0.007585	0.000007	0.0
0.008367	0.000008	0.0
0.009257	0.000009	0.0
0.010276	0.000010	0.0
0.011449	0.000011	0.0
0.012809	0.000012	0.0
0.014398	0.000014	0.0
0.016269	0.000015	0.0
0.018494	0.000017	0.0
0.021163	0.000018	0.0
0.024404	0.000020	0.0
0.028386	0.000022	0.0
0.033349	0.000023	0.0
0.039642	0.000024	0.0
0.047780	0.000025	0.0
0.058580	0.000026	0.0
0.073415	0.000025	0.0
0.094853	0.000024	0.0
0.128500	0.000022	0.0
0.190436	0.000019	0.0
0.000001	0.000000	0.0
0.000002	0.000000	0.0
0.000003	0.000000	0.0
0.000004	-0.000000	0.0
0.000004	-0.000000	0.0
0.000005	-0.000000	0.0
0.000006	-0.000000	0.0
0.000008	-0.000000	0.0
0.000009	-0.000000	0.0
0.000010	-0.000000	0.0
0.000012	-0.000000	0.0
0.000013	-0.000000	0.0
0.000015	-0.000000	0.0
0.000018	-0.000000	0.0
0.000020	-0.000000	0.0
0.000023	-0.000000	0.0
0.000026	-0.000000	0.0
0.000029	-0.000000	0.0
0.000033	-0.000000	0.0
0.000037	-0.000000	0.0
0.000042	-0.000000	0.0
0.000047	-0.000000	0.0
0.000053	-0.000000	0.0
0.000059	-0.000000	0.0
0.000066	-0.000000	0.0
0.000074	-0.000000	0.0
0.000083	-0.000000	0.0
0.000092	-0.000000	0.0
0.000103	-0.000000	0.0
0.000114	-0.000000	0.0
0.000127	-0.000000	0.0
0.000141	-0.000000	0.0
0.000156	-0.000000	0.0
0.000173	-0.000000	0.0
0.000191	-0.000000	0.0
0.000211	-0.000000	0.0
0.000233	-0.000000	0.0
0.000256	-0.000000	0.0
0.000282	-0.000000	0.0
0.000310	-0.000000	0.0
0.000341	-0.000000	0.0
0.000374	-0.000000	0.0
0.000410	-0.000000	0.0
0.000450	-0.000000	0.0
0.000492	-0.000000	0.0
0.000538	-0.000000	0.0
0.000588	-0.000000	0.0
0.000641	-0.000000	0.0
0.000700	-0.000000	0.0
0.000762	-0.000000	0.0
0.000830	-0.000000	0.0
0.000903	-0.000000	0.0
0.000982	-0.000000	0.0
0.001068	-0.000000	0.0
0.001160	0.000000	0.0
0.001259	0.000000	0.0
0.001366	0.000000	0.0
0.001481	0.000000	0.0
0.001606	0.000000	0.0
0.001741	0.000000	0.0
0.001887	0.000000	0.0
0.002044	0.000000	0.0
0.002214	0.000001	0.0
0.002399	0.000001	0.0
0.002598	0.000001	0.0
0.002815	0.000001	0.0
0.003051	0.000001	0.0
0.003308	0.000001	0.0
0.003588	0.000002	0.0
0.003894	0.000002	0.0
0.004228	0.000002	0.0
0.004596	0.000003	0.0
0.005000	0.000003	0.0
0.005446	0.000004	0.0
0.005939	0.000004	0.0
0.006487	0.000005	0.0
0.007097	0.000006	0.0
0.007780	0.000007	0.0
0.008546	0.000008	0.0
0.009411	0.000009	0.0
0.010392	0.000010	0.0
0.011511	0.000011	0.0
0.012794	0.000013	0.0
0.014274	0.000014	0.0
0.015994	0.000016	0.0
0.018009	0.000017	0.0
0.020388	0.000019	0.0
0.023222	0.000021	0.0
0.026636	0.000022	0.0
0.030795	0.000024	0.0
0.035932	0.000025	0.0
0.042380	0.000027	0.0
0.050637	0.000028	0.0
0.061491	0.000028	0.0
0.076276	0.000028	0.0
0.097509	0.000026	0.0
0.130734	0.000024	0.0
0.191930	0.000020	0.0
0.000001	0.000000	0.0
0.000002	0.000000	0.0
0.000003	0.000000	0.0
0.000004	-0.000000	0.0
0.000005	-0.000000	0.0
0.000006	-0.000000	0.0
0.000007	-0.000000	0.0
0.000009	-0.000000	0.0
0.000010	-0.000000	0.0
0.000012	-0.000000	0.0
0.000013	-0.000000	0.0
0.000015	-0.000000	0.0
0.000017	-0.000000	0.0
0.000020	-0.000000	0.0
0.000023	-0.000000	0.0
0.000026	-0.000000	0.0
0.000029	-0.000000	0.0
0.000033	-0.000000	0.0
0.000037	-0.000000	0.0
0.000042	-0.000000	0.0
0.000047	-0.000000	0.0
0.000053	-0.000000	0.0
0.000059	-0.000000	0.0
0.000067	-0.000000	0.0
0.000075	-0.000000	0.0
0.000083	-0.000000	0.0
0.000093	-0.000000	0.0
0.000104	-0.000000	0.0
0.000116	-0.000000	0.0
0.000129	-0.000000	0.0
0.000143	-0.000000	0.0
0.000159	-0.000000	0.0
0.000176	-0.000000	0.0
0.000194	-0.000000	0.0
0.000215	-0.000000	0.0
0.000237	-0.000000	0.0
0.000262	-0.000000	0.0
0.000289	-0.000000	0.0
0.000318	-0.000000	0.0
0.000349	-0.000000	0.0
0.000384	-0.000000	0.0
0.000421	-0.000000	0.0
0.000462	-0.000000	0.0
0.000506	-0.000000	0.0
0.000553	-0.000000	0.0
0.000605	-0.000000	0.0
0.000661	-0.000000	0.0
0.000721	-0.000000	0.0
0.000786	-0.000000	0.0
0.000857	-0.000000	0.0
0.000933	-0.000000	0.0
0.001015	-0.000000	0.0
0.001104	0.000000	0.0
0.001199	0.000000	0.0
0.001302	0.000000	0.0
0.001413	0.000000	0.0
0.001533	0.000000	0.0
0.001662	0.000000	0.0
0.001801	0.000000	0.0
0.001952	0.000000	0.0
0.002114	0.000000	0.0
0.002290	0.000001	0.0
0.002480	0.000001	0.0
0.002685	0.000001	0.0
0.002907	0.000001	0.0
0.003149	0.000001	0.0
0.003410	0.000001	0.0
0.003695	0.000002	0.0
0.004005	0.000002	0.0
0.004344	0.000002	0.0
0.004714	0.000003	0.0
0.005119	0.000003	0.0
0.005564	0.000004	0.0
0.006055	0.000004	0.0
0.006596	0.000005	0.0
0.007196	0.000006	0.0
0.007863	0.000006	0.0
0.008607	0.000007	0.0
0.009440	0.000008	0.0
0.010377	0.000010	0.0
0.011436	0.000011	0.0
0.012640	0.000012	0.0
0.014014	0.000014	0.0
0.015593	0.000015	0.0
0.017419	0.000017	0.0
0.019546	0.000019	0.0
0.022042	0.000021	0.0
0.024998	0.000023	0.0
0.028533	0.000024	0.0
0.032809	0.000026	0.0
0.038051	0.000028	0.0
0.044581	0.000029	0.0
0.052883	0.000030	0.0
0.063724	0.000030	0.0
0.078416	0.000030	0.0
0.099445	0.000028	0.0
0.132324	0.000025	0.0
0.192975	0.000022	0.0
0.000001	0.000000	0.0
0.000002	0.000000	0.0
0.000003	-0.000000	0.0
0.000004	-0.000000	0.0
0.000006	-0.000000	0.0
0.000007	-0.000000	0.0
0.000008	-0.000000	0.0
0.000009	-0.000000	0.0
0.000011	-0.000000	0.0
0.000013	-0.000000	0.0
0.000015	-0.000000	0.0
0.000017	-0.000000	0.0
0.000019	-0.000000	0.0
0.000022	-0.000000	0.0
0.000025	-0.000000	0.0
0.000029	-0.000000	0.0
0.000032	-0.000000	0.0
0.000037	-0.000000	0.0
0.000041	-0.000000	0.0
0.000047	-0.000000	0.0
0.000052	-0.000000	0.0
0.000059	-0.000000	0.0
0.000066	-0.000000	0.0
0.000074	-0.000000	0.0
0.000083	-0.000000	0.0
0.000093	-0.000000	0.0
0.000103	-0.000000	0.0
0.000115	-0.000000	0.0
0.000128	-0.000000	0.0
0.000143	-0.000000	0.0
0.000159	-0.000000	0.0
0.000176	-0.000000	0.0
0.000195	-0.000000	0.0
0.000216	-0.000000	0.0
0.000239	-0.000000	0.0
0.000264	-0.000000	0.0
0.000291	-0.000000	0.0
0.000320	-0.000000	0.0
0.000353	-0.000000	0.0
0.000388	-0.000000	0.0
0.000426	-0.000000	0.0
0.000467	-0.000000	0.0
0.000512	-0.000000	0.0
0.000561	-0.000000	0.0
0.000614	-0.000000	0.0
0.000671	-0.000000	0.0
0.000732	-0.000000	0.0
0.000799	-0.000000	0.0
0.000871	-0.000000	0.0
0.000949	-0.000000	0.0
0.001033	0.000000	0.0
0.001124	0.000000	0.0
0.001221	0.000000	0.0
0.001327	0.000000	0.0
0.001440	0.000000	0.0
0.001563	0.000000	0.0
0.001695	0.000000	0.0
0.001837	0.000000	0.0
0.001990	0.000000	0.0
0.002156	0.000001	0.0
0.002334	0.000001	0.0
0.002527	0.000001	0.0
0.002735	0.000001	0.0
0.002961	0.000001	0.0
0.003204	0.000001	0.0
0.003468	0.000001	0.0
0.003755	0.000002	0.0
0.004065	0.000002	0.0
0.004404	0.000002	0.0
0.004772	0.000003	0.0
0.005175	0.000003	0.0
0.005615	0.000003	0.0
0.006098	0.000004	0.0
0.006628	0.000005	0.0
0.007213	0.000005	0.0
0.007860	0.000006	0.0
0.008577	0.000007	0.0
0.009375	0.000008	0.0
0.010266	0.000009	0.0
0.011266	0.000011	0.0
0.012392	0.000012	0.0
0.013666	0.000013	0.0
0.015116	0.000015	0.0
0.016775	0.000017	0.0
0.018684	0.000019	0.0
0.020897	0.000020	0.0
0.023482	0.000022	0.0
0.026525	0.000024	0.0
0.030143	0.000026	0.0
0.034493	0.000028	0.0
0.039794	0.000030	0.0
0.046360	0.000031	0.0
0.054664	0.000032	0.0
0.065460	0.000032	0.0
0.080045	0.000031	0.0
0.100891	0.000030	0.0
0.133492	0.000027	0.0
0.193731	0.000023	0.0
0.000002	0.000000	0.0
0.000003	-0.000000	0.0
0.000004	-0.000000	0.0
0.000005	-0.000000	0.0
0.000006	-0.000000	0.0
0.000007	-0.000000	0.0
0.000009	-0.000000	0.0
0.000010	-0.000000	0.0
0.000012	-0.000000	0.0
0.000014	-0.000000	0.0
0.000016	-0.000000	0.0
0.000019	-0.000000	0.0
0.000021	-0.000000	0.0
0.000024	-0.000000	0.0
0.000028	-0.000000	0.0
0.000031	-0.000000	0.0
0.000036	-0.000000	0.0
0.000040	-0.000000	0.0
0.000045	-0.000000	0.0
0.000051	-0.000000	0.0
0.000058	-0.000000	0.0
0.000065	-0.000000	0.0
0.000073	-0.000000	0.0
0.000081	-0.000000	0.0
0.000091	-0.000000	0.0
0.000102	-0.000000	0.0
0.000114	-0.000000	0.0
0.000127	-0.000000	0.0
0.000141	-0.000000	0.0
0.000157	-0.000000	0.0
0.000174	-0.000000	0.0
0.000193	-0.000000	0.0
0.000214	-0.000000	0.0
0.000237	-0.000000	0.0
0.000262	-0.000000	0.0
0.000289	-0.000000	0.0
0.000319	-0.000000	0.0
0.000351	-0.000000	0.0
0.000387	-0.000000	0.0
0.000425	-0.000000	0.0
0.000467	-0.000000	0.0
0.000512	-0.000000	0.0
0.000561	-0.000000	0.0
0.000614	-0.000000	0.0
0.000672	-0.000000	0.0
0.000735	-0.000000	0.0
0.000802	-0.000000	0.0
0.000875	0.000000	0.0
0.000954	0.000000	0.0
0.001039	0.000000	0.0
0.001130	0.000000	0.0
0.001229	0.000000	0.0
0.001336	0.000000	0.0
0.001451	0.000000	0.0
0.001574	0.000000	0.0
0.001708	0.000000	0.0
0.001851	0.000000	0.0
0.002006	0.000000	0.0
0.002173	0.000001	0.0
0.002352	0.000001	0.0
0.002546	0.000001	0.0
0.002755	0.000001	0.0
0.002981	0.000001	0.0
0.003225	0.000001	0.0
0.003488	0.000001	0.0
0.003774	0.000002	0.0
0.004083	0.000002	0.0
0.004418	0.000002	0.0
0.004782	0.000002	0.0
0.005179	0.000003	0.0
0.005611	0.000003	0.0
0.006083	0.000004	0.0
0.006600	0.000004	0.0
0.007167	0.000005	0.0
0.007791	0.000006	0.0
0.008479	0.000007	0.0
0.009240	0.000008	0.0
0.010085	0.000009	0.0
0.011027	0.000010	0.0
0.012079	0.000011	0.0
0.013261	0.000013	0.0
0.014595	0.000014	0.0
0.016106	0.000016	0.0
0.017829	0.000018	0.0
0.019804	0.000020	0.0
0.022082	0.000022	0.0
0.024731	0.000024	0.0
0.027835	0.000026	0.0
0.031508	0.000028	0.0
0.035902	0.000030	0.0
0.041232	0.000031	0.0
0.047806	0.000033	0.0
0.056089	0.000033	0.0
0.066827	0.000034	0.0
0.081308	0.000033	0.0
0.101995	0.000031	0.0
0.134371	0.000028	0.0
0.194296	0.000023	0.0
0.000002	-0.000000	0.0
0.000003	-0.000000	0.0
0.000004	-0.000000	0.0
0.000005	-0.000000	0.0
0.000007	-0.000000	0.0
0.000008	-0.000000	0.0
0.000010	-0.000000	0.0
0.000011	-0.000000	0.0
0.000013	-0.000000	0.0
0.000015	-0.000000	0.0
0.000018	-0.000000	0.0
0.000020	-0.000000	0.0
0.000023	-0.000000	0.0
0.000026	-0.000000	0.0
0.000030	-0.000000	0.0
0.000034	-0.000000	0.0
0.000039	-0.000000	0.0
0.000044	-0.000000	0.0
0.000049	-0.000000	0.0
0.000056	-0.000000	0.0
0.000063	-0.000000	0.0
0.000070	-0.000000	0.0
0.000079	-0.000000	0.0
0.000088	-0.000000	0.0
0.000099	-0.000000	0.0
0.000111	-0.000000	0.0
0.000123	-0.000000	0.0
0.000138	-0.000000	0.0
0.000153	-0.000000	0.0
0.000170	-0.000000	0.0
0.000189	-0.000000	0.0
0.000210	-0.000000	0.0
0.000233	-0.000000	0.0
0.000257	-0.000000	0.0
0.000284	-0.000000	0.0
0.000314	-0.000000	0.0
0.000346	-0.000000	0.0
0.000381	-0.000000	0.0
0.000420	-0.000000	0.0
0.000461	-0.000000	0.0
0.000507	-0.000000	0.0
0.000556	-0.000000	0.0
0.000609	-0.000000	0.0
0.000667	-0.000000	0.0
0.000729	-0.000000	0.0
0.000797	0.000000	0.0
0.000870	0.000000	0.0
0.000948	0.000000	0.0
0.001034	0.000000	0.0
0.001125	0.000000	0.0
0.001224	0.000000	0.0
0.001331	0.000000	0.0
0.001446	0.000000	0.0
0.001570	0.000000	0.0
0.001704	0.000000	0.0
0.001847	0.000000	0.0
0.002002	0.000000	0.0
0.002169	0.000001	0.0
0.002348	0.000001	0.0
0.002541	0.000001	0.0
0.002749	0.000001	0.0
0.002974	0.000001	0.0
0.003216	0.000001	0.0
0.003477	0.000001	0.0
0.003759	0.000001	0.0
0.004065	0.000002	0.0
0.004395	0.000002	0.0
0.004753	0.000002	0.0
0.005141	0.000003	0.0
0.005563	0.000003	0.0
0.006022	0.000004	0.0
0.006523	0.000004	0.0
0.007071	0.000005	0.0
0.007670	0.000005	0.0
0.008329	0.000006	0.0
0.009053	0.000007	0.0
0.009853	0.000008	0.0
0.010739	0.000009	0.0
0.011724	0.000011	0.0
0.012821	0.000012	0.0
0.014050	0.000014	0.0
0.015432	0.000015	0.0
0.016994	0.000017	0.0
0.018767	0.000019	0.0
0.020792	0.000021	0.0
0.023119	0.000023	0.0
0.025814	0.000025	0.0
0.028960	0.000027	0.0
0.032667	0.000029	0.0
0.037085	0.000031	0.0
0.042425	0.000033	0.0
0.048989	0.000034	0.0
0.057239	0.000035	0.0
0.067915	0.000035	0.0
0.082300	0.000034	0.0
0.102852	0.000032	0.0
0.135047	0.000029	0.0
0.194727	0.000024	0.0
0.000002	-0.000000	0.0
0.000003	-0.000000	0.0
0.000004	-0.000000	0.0
0.000006	-0.000000	0.0
0.000007	-0.000000	0.0
0.000009	-0.000000	0.0
0.000010	-0.000000	0.0
0.000012	-0.000000	0.0
0.000014	-0.000000	0.0
0.000017	-0.000000	0.0
0.000019	-0.000000	0.0
0.000022	-0.000000	0.0
0.000025	-0.000000	0.0
0.000029	-0.000000	0.0
0.000032	-0.000000	0.0
0.000037	-0.000000	0.0
0.000042	-0.000000	0.0
0.000047	-0.000000	0.0
0.000053	-0.000000	0.0
0.000060	-0.000000	0.0
0.000068	-0.000000	0.0
0.000076	-0.000000	0.0
0.000085	-0.000000	0.0
0.000095	-0.000000	0.0
0.000107	-0.000000	0.0
0.000119	-0.000000	0.0
0.000133	-0.000000	0.0
0.000148	-0.000000	0.0
0.000165	-0.000000	0.0
0.000184	-0.000000	0.0
0.000204	-0.000000	0.0
0.000226	-0.000000	0.0
0.000251	-0.000000	0.0
0.000277	-0.000000	0.0
0.000306	-0.000000	0.0
0.000338	-0.000000	0.0
0.000373	-0.000000	0.0
0.000411	-0.000000	0.0
0.000452	-0.000000	0.0
0.000497	-0.000000	0.0
0.000545	-0.000000	0.0
0.000598	-0.000000	0.0
0.000655	-0.000000	0.0
0.000717	0.000000	0.0
0.000784	0.000000	0.0
0.000857	0.000000	0.0
0.000935	0.000000	0.0
0.001020	0.000000	0.0
0.001111	0.000000	0.0
0.001209	0.000000	0.0
0.001315	0.000000	0.0
0.001430	0.000000	0.0
0.001553	0.000000	0.0
0.001685	0.000000	0.0
0.001828	0.000000	0.0
0.001982	0.000000	0.0
0.002147	0.000001	0.0
0.002325	0.000001	0.0
0.002516	0.000001	0.0
0.002722	0.000001	0.0
0.002944	0.000001	0.0
0.003183	0.000001	0.0
0.003440	0.000001	0.0
0.003718	0.000001	0.0
0.004017	0.000002	0.0
0.004341	0.000002	0.0
0.004691	0.000002	0.0
0.005069	0.000002	0.0
0.005479	0.000003	0.0
0.005925	0.000003	0.0
0.006409	0.000004	0.0
0.006936	0.000004	0.0
0.007511	0.000005	0.0
0.008139	0.000006	0.0
0.008828	0.000007	0.0
0.009585	0.000008	0.0
0.010419	0.000009	0.0
0.011340	0.000010	0.0
0.012361	0.000011	0.0
0.013496	0.000013	0.0
0.014764	0.000014	0.0
0.016186	0.000016	0.0
0.017787	0.000018	0.0
0.019599	0.000020	0.0
0.021662	0.000022	0.0
0.024026	0.000024	0.0
0.026753	0.000026	0.0
0.029926	0.000028	0.0
0.033652	0.000030	0.0
0.038081	0.000032	0.0
0.043418	0.000034	0.0
0.049964	0.000035	0.0
0.058176	0.000036	0.0
0.068793	0.000036	0.0
0.083092	0.000035	0.0
0.103529	0.000033	0.0
0.135578	0.000029	0.0
0.195064	0.000025	0.0
0.000002	-0.000000	0.0
0.000003	-0.000000	0.0
0.000005	-0.000000	0.0
0.000006	-0.000000	0.0
0.000008	-0.000000	0.0
0.000009	-0.000000	0.0
0.000011	-0.000000	0.0
0.000013	-0.000000	0.0
0.000015	-0.000000	0.0
0.000018	-0.000000	0.0
0.000020	-0.000000	0.0
0.000023	-0.000000	0.0
0.000027	-0.000000	0.0
0.000031	-0.000000	0.0
0.000035	-0.000000	0.0
0.000040	-0.000000	0.0
0.000045	-0.000000	0.0
0.000051	-0.000000	0.0
0.000057	-0.000000	0.0
0.000064	-0.000000	0.0
0.000072	-0.000000	0.0
0.000081	-0.000000	0.0
0.000091	-0.000000	0.0
0.000102	-0.000000	0.0
0.000114	-0.000000	0.0
0.000128	-0.000000	0.0
0.000143	-0.000000	0.0
0.000159	-0.000000	0.0
0.000177	-0.000000	0.0
0.000197	-0.000000	0.0
0.000218	-0.000000	0.0
0.000242	-0.000000	0.0
0.000268	-0.000000	0.0
0.000297	-0.000000	0.0
0.000328	-0.000000	0.0
0.000362	-0.000000	0.0
0.000399	-0.000000	0.0
0.000439	-0.000000	0.0
0.000483	-0.000000	0.0
0.000531	-0.000000	0.0
0.000583	-0.000000	0.0
0.000639	0.000000	0.0
0.000700	0.000000	0.0
0.000766	0.000000	0.0
0.000838	0.000000	0.0
0.000915	0.000000	0.0
0.000998	0.000000	0.0
0.001088	0.000000	0.0
0.001185	0.000000	0.0
0.001290	0.000000	0.0
0.001403	0.000000	0.0
0.001525	0.000000	0.0
0.001655	0.000000	0.0
0.001796	0.000000	0.0
0.001948	0.000000	0.0
0.002110	0.000001	0.0
0.002286	0.000001	0.0
0.002474	0.000001	0.0
0.002677	0.000001	0.0
0.002895	0.000001	0.0
0.003129	0.000001	0.0
0.003381	0.000001	0.0
0.003653	0.000001	0.0
0.003946	0.000002	0.0
0.004262	0.000002	0.0
0.004602	0.000002	0.0
0.004970	0.000002	0.0