# vtk DataFile Version 3.0
Header
ASCII
DATASET RECTILINEAR_GRID
DIMENSIONS 98 98 1
X_COORDINATES 98 double
0.030000 0.050000 0.070000 0.090000 0.110000 0.130000 0.150000 0.170000 0.190000 0.210000 0.230000 0.250000 0.270000 0.290000 0.310000 0.330000 0.350000 0.370000 0.390000 0.410000 0.430000 0.450000 0.470000 0.490000 0.510000 0.530000 0.550000 0.570000 0.590000 0.610000 0.630000 0.650000 0.670000 0.690000 0.710000 0.730000 0.750000 0.770000 0.790000 0.810000 0.830000 0.850000 0.870000 0.890000 0.910000 0.930000 0.950000 0.970000 0.990000 1.010000 1.030000 1.050000 1.070000 1.090000 1.110000 1.130000 1.150000 1.170000 1.190000 1.210000 1.230000 1.250000 1.270000 1.290000 1.310000 1.330000 1.350000 1.370000 1.390000 1.410000 1.430000 1.450000 1.470000 1.490000 1.510000 1.530000 1.550000 1.570000 1.590000 1.610000 1.630000 1.650000 1.670000 1.690000 1.710000 1.730000 1.750000 1.770000 1.790000 1.810000 1.830000 1.850000 1.870000 1.890000 1.910000 1.930000 1.950000 1.970000 
Y_COORDINATES 98 double
0.030000 0.050000 0.070000 0.090000 0.110000 0.130000 0.150000 0.170000 0.190000 0.210000 0.230000 0.250000 0.270000 0.290000 0.310000 0.330000 0.350000 0.370000 0.390000 0.410000 0.430000 0.450000 0.470000 0.490000 0.510000 0.530000 0.550000 0.570000 0.590000 0.610000 0.630000 0.650000 0.670000 0.690000 0.710000 0.730000 0.750000 0.770000 0.790000 0.810000 0.830000 0.850000 0.870000 0.890000 0.910000 0.930000 0.950000 0.970000 0.990000 1.010000 1.030000 1.050000 1.070000 1.090000 1.110000 1.130000 1.150000 1.170000 1.190000 1.210000 1.230000 1.250000 1.270000 1.290000 1.310000 1.330000 1.350000 1.370000 1.390000 1.410000 1.430000 1.450000 1.470000 1.490000 1.510000 1.530000 1.550000 1.570000 1.590000 1.610000 1.630000 1.650000 1.670000 1.690000 1.710000 1.730000 1.750000 1.770000 1.790000 1.810000 1.830000 1.850000 1.870000 1.890000 1.910000 1.930000 1.950000 1.970000 
Z_COORDINATES 1 double
0.0
POINT_DATA 9604
VECTORS velocity double
-0.000003	-0.000003	0.0
-0.000001	-0.000000	0.0
0.000000	0.000001	0.0
0.000001	0.000001	0.0
0.000000	0.000001	0.0
0.000000	0.000000	0.0
0.000000	0.000000	0.0
0.000000	0.000000	0.0
0.000000	0.000000	0.0
0.000000	0.000000	0.0
0.000000	0.000000	0.0
0.000000	0.000000	0.0
0.000000	0.000000	0.0
0.000000	0.000000	0.0
0.000000	0.000000	0.0
0.000000	0.000000	0.0
0.000000	0.000000	0.0
0.000000	0.000000	0.0
0.000000	0.000000	0.0
0.000000	0.000000	0.0
0.000000	0.000000	0.0
0.000000	0.000000	0.0
0.000000	0.000000	0.0
0.000000	0.000000	0.0
0.000000	0.000000	0.0
0.000000	0.000000	0.0
0.000000	0.000000	0.0
0.000000	0.000000	0.0
0.000000	0.000000	0.0
0.000000	0.000000	0.0
0.000001	0.000000	0.0
0.000001	0.000000	0.0
0.000001	0.000000	0.0
0.000001	0.000000	0.0
0.000001	0.000000	0.0
0.000002	0.000000	0.0
0.000002	0.000000	0.0
0.000003	0.000000	0.0
0.000003	0.000000	0.0
0.000004	0.000000	0.0
0.000005	0.000000	0.0
0.000006	0.000000	0.0
0.000007	0.000000	0.0
0.000009	0.000000	0.0
0.000011	0.000000	0.0
0.000013	0.000000	0.0
0.000016	0.000000	0.0
0.000019	0.000000	0.0
0.000022	0.000000	0.0
0.000026	0.000000	0.0
0.000031	0.000000	0.0
0.000037	0.000000	0.0
0.000044	0.000000	0.0
0.000052	0.000000	0.0
0.000061	0.000000	0.0
0.000071	0.000000	0.0
0.000083	0.000000	0.0
0.000097	0.000000	0.0
0.000113	0.000000	0.0
0.000131	0.000000	0.0
0.000151	0.000000	0.0
0.000174	0.000000	0.0
0.000201	0.000000	0.0
0.000230	0.000000	0.0
0.000264	0.000000	0.0
0.000302	0.000000	0.0
0.000345	0.000000	0.0
0.000394	0.000000	0.0
0.000448	0.000000	0.0
0.000510	0.000000	0.0
0.000579	0.000000	0.0
0.000657	0.000000	0.0
0.000745	0.000000	0.0
0.000843	0.000000	0.0
0.000955	0.000000	0.0
0.001082	0.000000	0.0
0.001225	0.000000	0.0
0.001389	0.000000	0.0
0.001575	0.000000	0.0
0.001790	0.000000	0.0
0.002038	0.000000	0.0
0.002325	0.000001	0.0
0.002662	0.000001	0.0
0.003060	0.000001	0.0
0.003535	0.000001	0.0
0.004108	0.000001	0.0
0.004808	0.000002	0.0
0.005679	0.000002	0.0
0.006780	0.000003	0.0
0.008204	0.000003	0.0
0.010092	0.000003	0.0
0.012678	0.000004	0.0
0.016357	0.000005	0.0
0.021854	0.000005	0.0
0.030602	0.000006	0.0
0.045724	0.000005	0.0
0.074937	0.000003	0.0
0.141620	-0.000001	0.0
-0.000000	-0.000001	0.0
0.000000	0.000000	0.0
0.000001	0.000001	0.0
0.000001	0.000000	0.0
0.000000	0.000000	0.0
0.000000	-0.000000	0.0
-0.000000	-0.000000	0.0
-0.000000	-0.000000	0.0
-0.000000	-0.000000	0.0
-0.000000	-0.000000	0.0
-0.000000	-0.000000	0.0
-0.000000	-0.000000	0.0
-0.000000	-0.000000	0.0
-0.000000	-0.000000	0.0
-0.000000	-0.000000	0.0
-0.000000	-0.000000	0.0
-0.000000	-0.000000	0.0
-0.000000	-0.000000	0.0
-0.000000	-0.000000	0.0
-0.000000	-0.000000	0.0
-0.000000	-0.000000	0.0
-0.000000	-0.000000	0.0
-0.000000	-0.000000	0.0
0.000000	-0.000000	0.0
0.000000	-0.000000	0.0
0.000000	-0.000000	0.0
0.000000	-0.000000	0.0
0.000000	-0.000000	0.0
0.000000	-0.000000	0.0
0.000001	-0.000000	0.0
0.000001	-0.000000	0.0
0.000001	-0.000000	0.0
0.000001	-0.000000	0.0
0.000002	-0.000000	0.0
0.000002	-0.000000	0.0
0.000003	-0.000000	0.0
0.000003	-0.000000	0.0
0.000004	-0.000000	0.0
0.000005	-0.000000	0.0
0.000007	-0.000000	0.0
0.000008	-0.000000	0.0
0.000010	-0.000000	0.0
0.000012	-0.000000	0.0
0.000015	-0.000000	0.0
0.000018	-0.000000	0.0
0.000021	-0.000000	0.0
0.000026	-0.000000	0.0
0.000031	-0.000000	0.0
0.000037	-0.000000	0.0
0.000044	-0.000000	0.0
0.000052	-0.000000	0.0
0.000062	-0.000000	0.0
0.000073	-0.000000	0.0
0.000086	-0.000000	0.0
0.000101	-0.000000	0.0
0.000118	-0.000000	0.0
0.000138	-0.000000	0.0
0.000161	-0.000000	0.0
0.000187	-0.000000	0.0
0.000217	-0.000000	0.0
0.000250	-0.000000	0.0
0.000289	-0.000000	0.0
0.000333	-0.000000	0.0
0.000382	-0.000000	0.0
0.000438	-0.000001	0.0
0.000501	-0.000001	0.0
0.000573	-0.000001	0.0
0.000653	-0.000001	0.0
0.000743	-0.000001	0.0
0.000845	-0.000001	0.0
0.000959	-0.000001	0.0
0.001088	-0.000001	0.0
0.001233	-0.000001	0.0
0.001396	-0.000000	0.0
0.001580	-0.000000	0.0
0.001789	-0.000000	0.0
0.002025	-0.000000	0.0
0.002294	-0.000000	0.0
0.002601	-0.000000	0.0
0.002953	-0.000000	0.0
0.003359	0.000000	0.0
0.003829	0.000000	0.0
0.004379	0.000001	0.0
0.005026	0.000001	0.0
0.005796	0.000001	0.0
0.006722	0.000002	0.0
0.007849	0.000002	0.0
0.009240	0.000003	0.0
0.010988	0.000003	0.0
0.013227	0.000004	0.0
0.016160	0.000005	0.0
0.020109	0.000006	0.0
0.025600	0.000007	0.0
0.033537	0.000008	0.0
0.045572	0.000008	0.0
0.064954	0.000007	0.0
0.098835	0.000004	0.0
0.166830	-0.000001	0.0
0.000000	0.000000	0.0
0.000001	0.000001	0.0
0.000001	0.000001	0.0
0.000001	0.000000	0.0
0.000000	-0.000000	0.0
0.000000	-0.000000	0.0
-0.000000	-0.000000	0.0
-0.000000	-0.000000	0.0
-0.000000	-0.000000	0.0
-0.000000	-0.000000	0.0
-0.000000	-0.000000	0.0
-0.000000	-0.000000	0.0
-0.000000	-0.000000	0.0
-0.000000	-0.000000	0.0
-0.000000	-0.000000	0.0
-0.000000	-0.000000	0.0
-0.000000	-0.000000	0.0
-0.000000	-0.000000	0.0
-0.000000	-0.000000	0.0
-0.000000	-0.000000	0.0
-0.000000	-0.000000	0.0
-0.000000	-0.000000	0.0
0.000000	-0.000000	0.0
0.000000	-0.000000	0.0
0.000000	-0.000000	0.0
0.000000	-0.000000	0.0
0.000000	-0.000000	0.0
0.000000	-0.000000	0.0
0.000001	-0.000000	0.0
0.000001	-0.000000	0.0
0.000001	-0.000000	0.0
0.000001	-0.000000	0.0
0.000002	-0.000000	0.0
0.000002	-0.000000	0.0
0.000003	-0.000000	0.0
0.000004	-0.000000	0.0
0.000005	-0.000000	0.0
0.000006	-0.000000	0.0
0.000007	-0.000000	0.0
0.000009	-0.000000	0.0
0.000011	-0.000000	0.0
0.000014	-0.000000	0.0
0.000017	-0.000000	0.0
0.000020	-0.000000	0.0
0.000025	-0.000000	0.0
0.000030	-0.000000	0.0
0.000036	-0.000000	0.0
0.000043	-0.000000	0.0
0.000051	-0.000000	0.0
0.000061	-0.000000	0.0
0.000073	-0.000000	0.0
0.000086	-0.000000	0.0
0.000101	-0.000000	0.0
0.000119	-0.000000	0.0
0.000140	-0.000001	0.0
0.000164	-0.000001	0.0
0.000192	-0.000001	0.0
0.000224	-0.000001	0.0
0.000260	-0.000001	0.0
0.000301	-0.000001	0.0
0.000348	-0.000001	0.0
0.000402	-0.000001	0.0
0.000463	-0.000001	0.0
0.000532	-0.000001	0.0
0.000609	-0.000001	0.0
0.000697	-0.000001	0.0
0.000796	-0.000001	0.0
0.000907	-0.000001	0.0
0.001032	-0.000001	0.0
0.001173	-0.000001	0.0
0.001331	-0.000001	0.0
0.001509	-0.000001	0.0
0.001709	-0.000001	0.0
0.001935	-0.000001	0.0
0.002189	-0.000001	0.0
0.002476	-0.000001	0.0
0.002801	-0.000000	0.0
0.003171	-0.000000	0.0
0.003591	-0.000000	0.0
0.004073	-0.000000	0.0
0.004627	0.000000	0.0
0.005268	0.000000	0.0
0.006014	0.000001	0.0
0.006891	0.000001	0.0
0.007928	0.000002	0.0
0.009168	0.000002	0.0
0.010669	0.000003	0.0
0.012510	0.000004	0.0
0.014800	0.000005	0.0
0.017700	0.000006	0.0
0.021445	0.000007	0.0
0.026396	0.000008	0.0
0.033119	0.000009	0.0
0.042545	0.000010	0.0
0.056290	0.000011	0.0
0.077378	0.000010	0.0
0.112234	0.000007	0.0
0.178449	0.000001	0.0
0.000000	0.000000	0.0
0.000001	0.000001	0.0
0.000001	0.000000	0.0
0.000000	0.000000	0.0
0.000000	-0.000000	0.0
0.000000	-0.000000	0.0
-0.000000	-0.000000	0.0
-0.000000	-0.000000	0.0
-0.000000	-0.000000	0.0
-0.000000	-0.000000	0.0
-0.000000	-0.000000	0.0
-0.000000	-0.000000	0.0
-0.000000	-0.000000	0.0
-0.000000	-0.000000	0.0
-0.000000	-0.000000	0.0
-0.000000	-0.000000	0.0
-0.000000	-0.000000	0.0
-0.000000	-0.000000	0.0
-0.000000	-0.000000	0.0
-0.000000	-0.000000	0.0
0.000000	-0.000000	0.0
0.000000	-0.000000	0.0
0.000000	-0.000000	0.0
0.000000	-0.000000	0.0
0.000000	-0.000000	0.0
0.000000	-0.000000	0.0
0.000001	-0.000000	0.0
0.000001	-0.000000	0.0
0.000001	-0.000000	0.0
0.000001	-0.000000	0.0
0.000002	-0.000000	0.0
0.000002	-0.000000	0.0
0.000003	-0.000000	0.0
0.000003	-0.000000	0.0
0.000004	-0.000000	0.0
0.000005	-0.000000	0.0
0.000006	-0.000000	0.0
0.000008	-0.000000	0.0
0.000010	-0.000000	0.0
0.000012	-0.000000	0.0
0.000014	-0.000000	0.0
0.000018	-0.000000	0.0
0.000022	-0.000000	0.0
0.000026	-0.000000	0.0
0.000032	-0.000000	0.0
0.000038	-0.000000	0.0
0.000046	-0.000000	0.0
0.000055	-0.000000	0.0
0.000066	-0.000000	0.0
0.000078	-0.000000	0.0
0.000093	-0.000000	0.0
0.000110	-0.000000	0.0
0.000130	-0.000000	0.0
0.000153	-0.000000	0.0
0.000179	-0.000000	0.0
0.000210	-0.000000	0.0
0.000245	-0.000000	0.0
0.000286	-0.000001	0.0
0.000332	-0.000001	0.0
0.000385	-0.000001	0.0
0.000445	-0.000001	0.0
0.000513	-0.000001	0.0
0.000590	-0.000001	0.0
0.000678	-0.000001	0.0
0.000776	-0.000001	0.0
0.000888	-0.000001	0.0
0.001013	-0.000001	0.0
0.001155	-0.000001	0.0
0.001313	-0.000001	0.0
0.001492	-0.000001	0.0
0.001692	-0.000001	0.0
0.001917	-0.000001	0.0
0.002170	-0.000001	0.0
0.002455	-0.000001	0.0
0.002776	-0.000001	0.0
0.003137	-0.000001	0.0
0.003546	-0.000000	0.0
0.004010	-0.000000	0.0
0.004537	-0.000000	0.0
0.005138	0.000000	0.0
0.005829	0.000000	0.0
0.006625	0.000001	0.0
0.007549	0.000001	0.0
0.008628	0.000002	0.0
0.009900	0.000002	0.0
0.011413	0.000003	0.0
0.013231	0.000004	0.0
0.015441	0.000005	0.0
0.018165	0.000006	0.0
0.021573	0.000007	0.0
0.025914	0.000008	0.0
0.031553	0.000010	0.0
0.039052	0.000011	0.0
0.049309	0.000013	0.0
0.063845	0.000013	0.0
0.085462	0.000012	0.0
0.120134	0.000009	0.0
0.184541	0.000003	0.0
0.000000	0.000000	0.0
0.000000	0.000000	0.0
0.000000	0.000000	0.0
0.000000	0.000000	0.0
0.000000	-0.000000	0.0
0.000000	-0.000000	0.0
-0.000000	-0.000000	0.0
-0.000000	-0.000000	0.0
-0.000000	-0.000000	0.0
-0.000000	-0.000000	0.0
-0.000000	-0.000000	0.0
-0.000000	-0.000000	0.0
-0.000000	-0.000000	0.0
-0.000000	-0.000000	0.0
-0.000000	-0.000000	0.0
-0.000000	-0.000000	0.0
-0.000000	-0.000000	0.0
-0.000000	-0.000000	0.0
0.000000	-0.000000	0.0
0.000000	-0.000000	0.0
0.000000	-0.000000	0.0
0.000000	-0.000000	0.0
0.000000	-0.000000	0.0
0.000000	-0.000000	0.0
0.000000	-0.000000	0.0
0.000001	-0.000000	0.0
0.000001	-0.000000	0.0
0.000001	-0.000000	0.0
0.000001	-0.000000	0.0
0.000002	-0.000000	0.0
0.000002	-0.000000	0.0
0.000002	-0.000000	0.0
0.000003	-0.000000	0.0
0.000004	-0.000000	0.0
0.000005	-0.000000	0.0
0.000006	-0.000000	0.0
0.000008	-0.000000	0.0
0.000010	-0.000000	0.0
0.000012	-0.000000	0.0
0.000014	-0.000000	0.0
0.000018	-0.000000	0.0
0.000022	-0.000000	0.0
0.000026	-0.000000	0.0
0.000032	-0.000000	0.0
0.000038	-0.000000	0.0
0.000046	-0.000000	0.0
0.000056	-0.000000	0.0
0.000067	-0.000000	0.0
0.000080	-0.000000	0.0
0.000095	-0.000000	0.0
0.000113	-0.000000	0.0
0.000133	-0.000000	0.0
0.000157	-0.000000	0.0
0.000185	-0.000000	0.0
0.000217	-0.000000	0.0
0.000254	-0.000000	0.0
0.000297	-0.000000	0.0
0.000346	-0.000000	0.0
0.000402	-0.000000	0.0
0.000466	-0.000000	0.0
0.000538	-0.000001	0.0
0.000620	-0.000001	0.0
0.000714	-0.000001	0.0
0.000819	-0.000001	0.0
0.000938	-0.000001	0.0
0.001073	-0.000001	0.0
0.001224	-0.000001	0.0
0.001394	-0.000001	0.0
0.001585	-0.000001	0.0
0.001799	-0.000001	0.0
0.002040	-0.000001	0.0
0.002310	-0.000001	0.0
0.002613	-0.000001	0.0
0.002953	-0.000001	0.0
0.003336	-0.000001	0.0
0.003767	-0.000000	0.0
0.004254	-0.000000	0.0
0.004804	-0.000000	0.0
0.005429	0.000000	0.0
0.006140	0.000000	0.0
0.006953	0.000001	0.0
0.007888	0.000001	0.0
0.008968	0.000002	0.0
0.010225	0.000002	0.0
0.011698	0.000003	0.0
0.013439	0.000004	0.0
0.015516	0.000005	0.0
0.018021	0.000006	0.0
0.021080	0.000007	0.0
0.024864	0.000008	0.0
0.029620	0.000010	0.0
0.035708	0.000011	0.0
0.043667	0.000013	0.0
0.054350	0.000014	0.0
0.069193	0.000015	0.0
0.090850	0.000014	0.0
0.125052	0.000011	0.0
0.188076	0.000004	0.0
0.000000	0.000000	0.0
0.000000	0.000000	0.0
0.000000	0.000000	0.0
0.000000	0.000000	0.0
0.000000	-0.000000	0.0
0.000000	-0.000000	0.0
0.000000	-0.000000	0.0
0.000000	-0.000000	0.0
-0.000000	-0.000000	0.0
-0.000000	-0.000000	0.0
-0.000000	-0.000000	0.0
-0.000000	-0.000000	0.0
-0.000000	-0.000000	0.0
-0.000000	-0.000000	0.0
-0.000000	-0.000000	0.0
-0.000000	-0.000000	0.0
0.000000	-0.000000	0.0
0.000000	-0.000000	0.0
0.000000	-0.000000	0.0
0.000000	-0.000000	0.0
0.000000	-0.000000	0.0
0.000000	-0.000000	0.0
0.000000	-0.000000	0.0
0.000000	-0.000000	0.0
0.000001	-0.000000	0.0
0.000001	-0.000000	0.0
0.000001	-0.000000	0.0
0.000001	-0.000000	0.0
0.000001	-0.000000	0.0
0.000002	-0.000000	0.0
0.000002	-0.000000	0.0
0.000003	-0.000000	0.0
0.000004	-0.000000	0.0
0.000005	-0.000000	0.0
0.000006	-0.000000	0.0
0.000007	-0.000000	0.0
0.000009	-0.000000	0.0
0.000011	-0.000000	0.0
0.000014	-0.000000	0.0
0.000017	-0.000000	0.0
0.000021	-0.000000	0.0
0.000025	-0.000000	0.0
0.000031	-0.000000	0.0
0.000037	-0.000000	0.0
0.000045	-0.000000	0.0
0.000054	-0.000000	0.0
0.000065	-0.000000	0.0
0.000078	-0.000000	0.0
0.000093	-0.000000	0.0
0.000111	-0.000000	0.0
0.000132	-0.000000	0.0
0.000156	-0.000000	0.0
0.000184	-0.000000	0.0
0.000217	-0.000000	0.0
0.000254	-0.000000	0.0
0.000298	-0.000000	0.0
0.000347	-0.000000	0.0
0.000405	-0.000000	0.0
0.000470	-0.000000	0.0
0.000544	-0.000000	0.0
0.000629	-0.000000	0.0
0.000725	-0.000001	0.0
0.000833	-0.000001	0.0
0.000956	-0.000001	0.0
0.001095	-0.000001	0.0
0.001251	-0.000001	0.0
0.001427	-0.000001	0.0
0.001624	-0.000001	0.0
0.001845	-0.000001	0.0
0.002094	-0.000001	0.0
0.002372	-0.000001	0.0
0.002684	-0.000001	0.0
0.003034	-0.000001	0.0
0.003427	-0.000001	0.0
0.003867	-0.000000	0.0
0.004363	-0.000000	0.0
0.004921	-0.000000	0.0
0.005550	-0.000000	0.0
0.006263	0.000000	0.0
0.007072	0.000001	0.0
0.007994	0.000001	0.0
0.009050	0.000001	0.0
0.010266	0.000002	0.0
0.011674	0.000003	0.0
0.013315	0.000003	0.0
0.015244	0.000004	0.0
0.017529	0.000006	0.0
0.020263	0.000007	0.0
0.023571	0.000008	0.0
0.027624	0.000010	0.0
0.032660	0.000011	0.0
0.039027	0.000013	0.0
0.047242	0.000015	0.0
0.058118	0.000016	0.0
0.073030	0.000017	0.0
0.094544	0.000016	0.0
0.128269	0.000012	0.0
0.190291	0.000006	0.0
0.000000	0.000000	0.0
0.000000	0.000000	0.0
0.000000	0.000000	0.0
0.000000	0.000000	0.0
0.000000	-0.000000	0.0
0.000000	-0.000000	0.0
0.000000	-0.000000	0.0
0.000000	-0.000000	0.0
0.000000	-0.000000	0.0
0.000000	-0.000000	0.0
-0.000000	-0.000000	0.0
-0.000000	-0.000000	0.0
-0.000000	-0.000000	0.0
0.000000	-0.000000	0.0
0.000000	-0.000000	0.0
0.000000	-0.000000	0.0
0.000000	-0.000000	0.0
0.000000	-0.000000	0.0
0.000000	-0.000000	0.0
0.000000	-0.000000	0.0
0.000000	-0.000000	0.0
0.000000	-0.000000	0.0
0.000000	-0.000000	0.0
0.000000	-0.000000	0.0
0.000001	-0.000000	0.0
0.000001	-0.000000	0.0
0.000001	-0.000000	0.0
0.000001	-0.000000	0.0
0.000002	-0.000000	0.0
0.000002	-0.000000	0.0
0.000003	-0.000000	0.0
0.000003	-0.000000	0.0
0.000004	-0.000000	0.0
0.000005	-0.000000	0.0
0.000007	-0.000000	0.0
0.000008	-0.000000	0.0
0.000010	-0.000000	0.0
0.000013	-0.000000	0.0
0.000016	-0.000000	0.0
0.000019	-0.000000	0.0
0.000024	-0.000000	0.0
0.000029	-0.000000	0.0
0.000035	-0.000000	0.0
0.000043	-0.000000	0.0
0.000051	-0.000000	0.0
0.000062	-0.000000	0.0
0.000074	-0.000000	0.0
0.000089	-0.000000	0.0
0.000106	-0.000000	0.0
0.000127	-0.000000	0.0
0.000150	-0.000000	0.0
0.000178	-0.000000	0.0
0.000210	-0.000000	0.0
0.000247	-0.000000	0.0
0.000290	-0.000000	0.0
0.000339	-0.000000	0.0
0.000396	-0.000000	0.0
0.000461	-0.000000	0.0
0.000535	-0.000000	0.0
0.000620	-0.000000	0.0
0.000716	-0.000000	0.0
0.000825	-0.000000	0.0
0.000948	-0.000001	0.0
0.001088	-0.000001	0.0
0.001245	-0.000001	0.0
0.001421	-0.000001	0.0
0.001620	-0.000001	0.0
0.001843	-0.000001	0.0
0.002093	-0.000001	0.0
0.002374	-0.000001	0.0
0.002688	-0.000001	0.0
0.003039	-0.000001	0.0
0.003432	-0.000001	0.0
0.003873	-0.000001	0.0
0.004367	-0.000000	0.0
0.004921	-0.000000	0.0
0.005543	-0.000000	0.0
0.006244	0.000000	0.0
0.007035	0.000000	0.0
0.007931	0.000001	0.0
0.008949	0.000001	0.0
0.010110	0.000002	0.0
0.011442	0.000002	0.0
0.012976	0.000003	0.0
0.014756	0.000004	0.0
0.016835	0.000005	0.0
0.019283	0.000006	0.0
0.022191	0.000007	0.0
0.025681	0.000009	0.0
0.029920	0.000011	0.0
0.035139	0.000012	0.0
0.041672	0.000014	0.0
0.050016	0.000016	0.0
0.060956	0.000017	0.0
0.075829	0.000018	0.0
0.097150	0.000017	0.0
0.130465	0.000013	0.0
0.191761	0.000006	0.0
0.000000	0.000000	0.0
0.000000	0.000000	0.0
0.000000	0.000000	0.0
0.000000	0.000000	0.0
0.000000	0.000000	0.0
0.000000	-0.000000	0.0
0.000000	-0.000000	0.0
0.000000	-0.000000	0.0
0.000000	-0.000000	0.0
0.000000	-0.000000	0.0
0.000000	-0.000000	0.0
0.000000	-0.000000	0.0
0.000000	-0.000000	0.0
0.000000	-0.000000	0.0
0.000000	-0.000000	0.0
0.000000	-0.000000	0.0
0.000000	-0.000000	0.0
0.000000	-0.000000	0.0
0.000000	-0.000000	0.0
0.000000	-0.000000	0.0
0.000000	-0.000000	0.0
0.000000	-0.000000	0.0
0.000000	-0.000000	0.0
0.000001	-0.000000	0.0
0.000001	-0.000000	0.0
0.000001	-0.000000	0.0
0.000001	-0.000000	0.0
0.000002	-0.000000	0.0
0.000002	-0.000000	0.0
0.000002	-0.000000	0.0
0.000003	-0.000000	0.0
0.000004	-0.000000	0.0
0.000005	-0.000000	0.0
0.000006	-0.000000	0.0
0.000008	-0.000000	0.0
0.000009	-0.000000	0.0
0.000012	-0.000000	0.0
0.000014	-0.000000	0.0
0.000018	-0.000000	0.0
0.000022	-0.000000	0.0
0.000027	-0.000000	0.0
0.000032	-0.000000	0.0
0.000039	-0.000000	0.0
0.000048	-0.000000	0.0
0.000058	-0.000000	0.0
0.000069	-0.000000	0.0
0.000083	-0.000000	0.0
0.000100	-0.000000	0.0
0.000119	-0.000000	0.0
0.000142	-0.000000	0.0
0.000168	-0.000000	0.0
0.000199	-0.000000	0.0
0.000235	-0.000000	0.0
0.000277	-0.000000	0.0
0.000324	-0.000000	0.0
0.000380	-0.000000	0.0
0.000443	-0.000000	0.0
0.000515	-0.000000	0.0
0.000598	-0.000000	0.0
0.000692	-0.000000	0.0
0.000799	-0.000000	0.0
0.000921	-0.000001	0.0
0.001058	-0.000001	0.0
0.001213	-0.000001	0.0
0.001387	-0.000001	0.0
0.001584	-0.000001	0.0
0.001804	-0.000001	0.0
0.002052	-0.000001	0.0
0.002329	-0.000001	0.0
0.002638	-0.000001	0.0
0.002985	-0.000001	0.0
0.003373	-0.000001	0.0
0.003806	-0.000001	0.0
0.004290	-0.000001	0.0
0.004832	-0.000000	0.0
0.005439	-0.000000	0.0
0.006120	-0.000000	0.0
0.006885	0.000000	0.0
0.007745	0.000000	0.0
0.008717	0.000001	0.0
0.009818	0.000001	0.0
0.011069	0.000002	0.0
0.012497	0.000002	0.0
0.014137	0.000003	0.0
0.016029	0.000004	0.0
0.018227	0.000005	0.0
0.020801	0.000007	0.0
0.023838	0.000008	0.0
0.027459	0.000010	0.0
0.031823	0.000011	0.0
0.037157	0.000013	0.0
0.043781	0.000015	0.0
0.052179	0.000017	0.0
0.063118	0.000018	0.0
0.077907	0.000019	0.0
0.099036	0.000018	0.0
0.132018	0.000014	0.0
0.192782	0.000007	0.0
0.000000	0.000000	0.0
0.000000	0.000000	0.0
0.000000	0.000000	0.0
0.000000	0.000000	0.0
0.000000	0.000000	0.0
0.000000	0.000000	0.0
0.000000	-0.000000	0.0
0.000000	-0.000000	0.0
0.000000	-0.000000	0.0
0.000000	-0.000000	0.0
0.000000	-0.000000	0.0
0.000000	-0.000000	0.0
0.000000	-0.000000	0.0
0.000000	-0.000000	0.0
0.000000	-0.000000	0.0
0.000000	-0.000000	0.0
0.000000	-0.000000	0.0
0.000000	-0.000000	0.0
0.000000	-0.000000	0.0
0.000000	-0.000000	0.0
0.000000	-0.000000	0.0
0.000000	-0.000000	0.0
0.000000	-0.000000	0.0
0.000001	-0.000000	0.0
0.000001	-0.000000	0.0
0.000001	-0.000000	0.0
0.000001	-0.000000	0.0
0.000002	-0.000000	0.0
0.000002	-0.000000	0.0
0.000003	-0.000000	0.0
0.000003	-0.000000	0.0
0.000004	-0.000000	0.0
0.000005	-0.000000	0.0
0.000007	-0.000000	0.0
0.000008	-0.000000	0.0
0.000010	-0.000000	0.0
0.000013	-0.000000	0.0
0.000016	-0.000000	0.0
0.000020	-0.000000	0.0
0.000024	-0.000000	0.0
0.000029	-0.000000	0.0
0.000036	-0.000000	0.0
0.000043	-0.000000	0.0
0.000053	-0.000000	0.0
0.000064	-0.000000	0.0
0.000077	-0.000000	0.0
0.000092	-0.000000	0.0
0.000110	-0.000000	0.0
0.000132	-0.000000	0.0
0.000156	-0.000000	0.0
0.000186	-0.000000	0.0
0.000220	-0.000000	0.0
0.000259	-0.000000	0.0
0.000305	-0.000000	0.0
0.000357	-0.000000	0.0
0.000418	-0.000000	0.0
0.000488	-0.000000	0.0
0.000567	-0.000000	0.0
0.000658	-0.000000	0.0
0.000761	-0.000000	0.0
0.000879	-0.000000	0.0
0.001012	-0.000001	0.0
0.001162	-0.000001	0.0
0.001332	-0.000001	0.0
0.001523	-0.000001	0.0
0.001737	-0.000001	0.0
0.001978	-0.000001	0.0
0.002248	-0.000001	0.0
0.002550	-0.000001	0.0
0.002887	-0.000001	0.0
0.003264	-0.000001	0.0
0.003685	-0.000001	0.0
0.004155	-0.000001	0.0
0.004679	-0.000001	0.0
0.005264	-0.000001	0.0
0.005919	-0.000000	0.0
0.006651	-0.000000	0.0
0.007472	0.000000	0.0
0.008394	0.000000	0.0
0.009431	0.000001	0.0
0.010602	0.000001	0.0
0.011929	0.000002	0.0
0.013439	0.000003	0.0
0.015164	0.000003	0.0
0.017146	0.000004	0.0
0.019438	0.000006	0.0
0.022106	0.000007	0.0
0.025238	0.000008	0.0
0.028950	0.000010	0.0
0.033398	0.000012	0.0
0.038799	0.000014	0.0
0.045469	0.000016	0.0
0.053879	0.000017	0.0
0.064782	0.000019	0.0
0.079476	0.000020	0.0
0.100433	0.000019	0.0
0.133147	0.000015	0.0
0.193515	0.000008	0.0
0.000000	0.000000	0.0
0.000000	0.000000	0.0
0.000000	0.000000	0.0
0.000000	0.000000	0.0
0.000000	0.000000	0.0
0.000000	0.000000	0.0
0.000000	0.000000	0.0
0.000000	0.000000	0.0
0.000000	-0.000000	0.0
0.000000	-0.000000	0.0
0.000000	-0.000000	0.0
0.000000	-0.000000	0.0
0.000000	-0.000000	0.0
0.000000	-0.000000	0.0
0.000000	-0.000000	0.0
0.000000	-0.000000	0.0
0.000000	-0.000000	0.0
0.000000	-0.000000	0.0
0.000000	0.000000	0.0
0.000000	0.000000	0.0
0.000000	0.000000	0.0
0.000000	0.000000	0.0
0.000001	0.000000	0.0
0.000001	0.000000	0.0
0.000001	0.000000	0.0
0.000001	0.000000	0.0
0.000001	0.000000	0.0
0.000002	0.000000	0.0
0.000002	0.000000	0.0
0.000003	0.000000	0.0
0.000004	0.000000	0.0
0.000005	0.000000	0.0
0.000006	0.000000	0.0
0.000007	0.000000	0.0
0.000009	0.000000	0.0
0.000011	0.000000	0.0
0.000014	0.000000	0.0
0.000017	0.000000	0.0
0.000021	-0.000000	0.0
0.000026	-0.000000	0.0
0.000032	-0.000000	0.0
0.000039	-0.000000	0.0
0.000047	-0.000000	0.0
0.000057	-0.000000	0.0
0.000069	-0.000000	0.0
0.000084	-0.000000	0.0
0.000100	-0.000000	0.0
0.000120	-0.000000	0.0
0.000143	-0.000000	0.0
0.000170	-0.000000	0.0
0.000202	-0.000000	0.0
0.000239	-0.000000	0.0
0.000282	-0.000000	0.0
0.000332	-0.000000	0.0
0.000389	-0.000000	0.0
0.000455	-0.000000	0.0
0.000530	-0.000000	0.0
0.000616	-0.000000	0.0
0.000715	-0.000000	0.0
0.000827	-0.000000	0.0
0.000954	-0.000001	0.0
0.001098	-0.000001	0.0
0.001261	-0.000001	0.0
0.001444	-0.000001	0.0
0.001650	-0.000001	0.0
0.001882	-0.000001	0.0
0.002142	-0.000001	0.0
0.002432	-0.000001	0.0
0.002757	-0.000001	0.0
0.003119	-0.000001	0.0
0.003524	-0.000001	0.0
0.003975	-0.000001	0.0
0.004478	-0.000001	0.0
0.005038	-0.000001	0.0
0.005663	-0.000001	0.0
0.006359	-0.000000	0.0
0.007137	-0.000000	0.0
0.008007	0.000000	0.0
0.008982	0.000000	0.0
0.010075	0.000001	0.0
0.011307	0.000001	0.0
0.012697	0.000002	0.0
0.014273	0.000003	0.0
0.016067	0.000004	0.0
0.018121	0.000005	0.0
0.020485	0.000006	0.0
0.023224	0.000007	0.0
0.026425	0.000009	0.0
0.030199	0.000010	0.0
0.034700	0.000012	0.0
0.040139	0.000014	0.0
0.046825	0.000016	0.0
0.055223	0.000018	0.0
0.066078	0.000020	0.0
0.080678	0.000020	0.0
0.101487	0.000019	0.0
0.133989	0.000015	0.0
0.194057	0.000008	0.0
0.000000	0.000000	0.0
0.000000	0.000000	0.0
0.000000	0.000000	0.0
0.000000	0.000000	0.0
0.000000	0.000000	0.0
0.000000	0.000000	0.0
0.000000	0.000000	0.0
0.000000	0.000000	0.0
0.000000	0.000000	0.0
0.000000	0.000000	0.0
0.000000	0.000000	0.0
0.000000	0.000000	0.0
0.000000	0.000000	0.0
0.000000	0.000000	0.0
0.000000	0.000000	0.0
0.000000	0.000000	0.0
0.000000	0.000000	0.0
0.000000	0.000000	0.0
0.000000	0.000000	0.0
0.000000	0.000000	0.0
0.000000	0.000000	0.0
0.000000	0.000000	0.0
0.000001	0.000000	0.0
0.000001	0.000000	0.0
0.000001	0.000000	0.0
0.000001	0.000000	0.0
0.000002	0.000000	0.0
0.000002	0.000000	0.0
0.000003	0.000000	0.0
0.000003	0.000000	0.0
0.000004	0.000000	0.0
0.000005	0.000000	0.0
0.000006	0.000000	0.0
0.000008	0.000000	0.0
0.000010	0.000000	0.0
0.000012	0.000000	0.0
0.000015	0.000000	0.0
0.000019	0.000000	0.0
0.000023	0.000000	0.0
0.000028	0.000000	0.0
0.000035	0.000000	0.0
0.000042	0.000000	0.0
0.000051	-0.000000	0.0
0.000062	-0.000000	0.0
0.000075	-0.000000	0.0
0.000090	-0.000000	0.0
0.000108	-0.000000	0.0
0.000129	-0.000000	0.0
0.000154	-0.000000	0.0
0.000184	-0.000000	0.0
0.000218	-0.000000	0.0
0.000258	-0.000000	0.0
0.000304	-0.000000	0.0
0.000357	-0.000000	0.0
0.000419	-0.000000	0.0
0.000489	-0.000000	0.0
0.000570	-0.000000	0.0
0.000663	-0.000000	0.0
0.000769	-0.000000	0.0
0.000889	-0.000000	0.0
0.001025	-0.000001	0.0
0.001179	-0.000001	0.0
0.001354	-0.000001	0.0
0.001550	-0.000001	0.0
0.001770	-0.000001	0.0
0.002017	-0.000001	0.0
0.002294	-0.000001	0.0
0.002604	-0.000001	0.0
0.002950	-0.000001	0.0
0.003335	-0.000001	0.0
0.003765	-0.000001	0.0
0.004243	-0.000001	0.0
0.004776	-0.000001	0.0
0.005368	-0.000001	0.0
0.006027	-0.000001	0.0
0.006762	-0.000000	0.0
0.007580	-0.000000	0.0
0.008492	0.000000	0.0
0.009512	0.000000	0.0
0.010654	0.000001	0.0
0.011936	0.000001	0.0
0.013379	0.000002	0.0
0.015009	0.000003	0.0
0.016859	0.000004	0.0
0.018969	0.000005	0.0
0.021388	0.000006	0.0
0.024180	0.000007	0.0
0.027429	0.000009	0.0
0.031245	0.000011	0.0
0.035777	0.000013	0.0
0.041235	0.000014	0.0
0.047920	0.000016	0.0
0.056294	0.000018	0.0
0.067098	0.000020	0.0
0.081612	0.000021	0.0
0.102296	0.000020	0.0
0.134630	0.000016	0.0
0.194466	0.000008	0.0
0.000000	0.000000	0.0
0.000000	0.000000	0.0
0.000000	0.000000	0.0
0.000000	0.000000	0.0
0.000000	0.000000	0.0
0.000000	0.000000	0.0
0.000000	0.000000	0.0
0.000000	0.000000	0.0
0.000000	0.000000	0.0
0.000000	0.000000	0.0
0.000000	0.000000	0.0
0.000000	0.000000	0.0
0.000000	0.000000	0.0
0.000000	0.000000	0.0
0.000000	0.000000	0.0
0.000000	0.000000	0.0
0.000000	0.000000	0.0
0.000000	0.000000	0.0
0.000000	0.000000	0.0
0.000000	0.000000	0.0
0.000000	0.000000	0.0
0.000000	0.000000	0.0
0.000001	0.000000	0.0
0.000001	0.000000	0.0
0.000001	0.000000	0.0
0.000001	0.000000	0.0
0.000002	0.000000	0.0
0.000002	0.000000	0.0
0.000003	0.000000	0.0
0.000003	0.000000	0.0
0.000004	0.000000	0.0
0.000005	0.000000	0.0
0.000007	0.000000	0.0
0.000009	0.000000	0.0
0.000011	0.000000	0.0
0.000013	0.000000	0.0
0.000016	0.000000	0.0
0.000020	0.000000	0.0
0.000025	0.000000	0.0
0.000030	0.000000	0.0
0.000037	0.000000	0.0
0.000045	0.000000	0.0
0.000055	0.000000	0.0
0.000066	-0.000000	0.0
0.000080	-0.000000	0.0
0.000096	-0.000000	0.0
0.000116	-0.000000	0.0
0.000138	-0.000000	0.0
0.000165	-0.000000	0.0
0.000196	-0.000000	0.0
0.000233	-0.000000	0.0
0.000275	-0.000000	0.0
0.000324	-0.000000	0.0
0.000381	-0.000000	0.0
0.000447	-0.000000	0.0
0.000522	-0.000000	0.0
0.000608	-0.000000	0.0
0.000707	-0.000000	0.0
0.000819	-0.000000	0.0
0.000947	-0.000000	0.0
0.001092	-0.000001	0.0
0.001256	-0.000001	0.0
0.001440	-0.000001	0.0
0.001648	-0.000001	0.0
0.001882	-0.000001	0.0
0.002144	-0.000001	0.0
0.002436	-0.000001	0.0
0.002764	-0.000001	0.0
0.003128	-0.000001	0.0
0.003535	-0.000001	0.0
0.003987	-0.000001	0.0
0.004490	-0.000001	0.0
0.005049	-0.000001	0.0
0.005670	-0.000001	0.0
0.006360	-0.000001	0.0
0.007127	-0.000000	0.0
0.007980	-0.000000	0.0
0.008929	0.000000	0.0
0.009988	0.000000	0.0
0.011171	0.000001	0.0
0.012495	0.000001	0.0
0.013981	0.000002	0.0
0.015656	0.000003	0.0
0.017550	0.000004	0.0
0.019703	0.000005	0.0
0.022164	0.000006	0.0
0.024995	0.000008	0.0
0.028278	0.000009	0.0
0.032121	0.000011	0.0
0.036671	0.000013	0.0
0.042133	0.000015	0.0
0.048809	0.000017	0.0
0.057155	0.000019	0.0
0.067907	0.000020	0.0
0.082346	0.000021	0.0
0.102927	0.000020	0.0
0.135125	0.000016	0.0
0.194780	0.000009	0.0
0.000000	0.000000	0.0
0.000000	0.000000	0.0
0.000000	0.000000	0.0
0.000000	0.000000	0.0
0.000000	0.000000	0.0
0.000000	0.000000	0.0
0.000000	0.000000	0.0
0.000000	0.000000	0.0
0.000000	0.000000	0.0
0.000000	0.000000	0.0
0.000000	0.000000	0.0
0.000000	0.000000	0.0
0.000000	0.000000	0.0
0.000000	0.000000	0.0
0.000000	0.000000	0.0
0.000000	0.000000	0.0
0.000000	0.000000	0.0
0.000000	0.000000	0.0
0.000000	0.000000	0.0
0.000000	0.000000	0.0
0.000000	0.000000	0.0
0.000001	0.000000	0.0
0.000001	0.000000	0.0
0.000001	0.000000	0.0
0.000001	0.000000	0.0
0.000001	0.000000	0.0
0.000002	0.000000	0.0
0.000002	0.000000	0.0
0.000003	0.000000	0.0
0.000004	0.000000	0.0
0.000005	0.000000	0.0
0.000006	0.000000	0.0
0.000007	0.000000	0.0
0.000009	0.000000	0.0
0.000011	0.000000	0.0
0.000014	0.000000	0.0
0.000017	0.000000	0.0
0.000021	0.000000	0.0
0.000026	0.000000	0.0
0.000032	0.000000	0.0
0.000039	0.000000	0.0
0.000048	0.000000	0.0
0.000058	0.000000	0.0
0.000070	0.000000	0.0
0.000085	-0.000000	0.0
0.000102	-0.000000	0.0
0.000123	-0.000000	0.0
0.000147	-0.000000	0.0
0.000175	-0.000000	0.0
0.000208	-0.000000	0.0
0.000247	-0.000000	0.0
0.000292	-0.000000	0.0
0.000344	-0.000000	0.0
0.000404	-0.000000	0.0
0.000473	-0.000000	0.0
0.000553	-0.000000	0.0
0.000644	-0.000000	0.0
0.000748	-0.000000	0.0
0.000867	-0.000000	0.0
0.001002	-0.000001	0.0
0.001154	-0.000001	0.0