# vtk DataFile Version 3.0
Header
ASCII
DATASET RECTILINEAR_GRID
DIMENSIONS 98 98 1
X_COORDINATES 98 double
0.030000 0.050000 0.070000 0.090000 0.110000 0.130000 0.150000 0.170000 0.190000 0.210000 0.230000 0.250000 0.270000 0.290000 0.310000 0.330000 0.350000 0.370000 0.390000 0.410000 0.430000 0.450000 0.470000 0.490000 0.510000 0.530000 0.550000 0.570000 0.590000 0.610000 0.630000 0.650000 0.670000 0.690000 0.710000 0.730000 0.750000 0.770000 0.790000 0.810000 0.830000 0.850000 0.870000 0.890000 0.910000 0.930000 0.950000 0.970000 0.990000 1.010000 1.030000 1.050000 1.070000 1.090000 1.110000 1.130000 1.150000 1.170000 1.190000 1.210000 1.230000 1.250000 1.270000 1.290000 1.310000 1.330000 1.350000 1.370000 1.390000 1.410000 1.430000 1.450000 1.470000 1.490000 1.510000 1.530000 1.550000 1.570000 1.590000 1.610000 1.630000 1.650000 1.670000 1.690000 1.710000 1.730000 1.750000 1.770000 1.790000 1.810000 1.830000 1.850000 1.870000 1.890000 1.910000 1.930000 1.950000 1.970000 
Y_COORDINATES 98 double
0.030000 0.050000 0.070000 0.090000 0.110000 0.130000 0.150000 0.170000 0.190000 0.210000 0.230000 0.250000 0.270000 0.290000 0.310000 0.330000 0.350000 0.370000 0.390000 0.410000 0.430000 0.450000 0.470000 0.490000 0.510000 0.530000 0.550000 0.570000 0.590000 0.610000 0.630000 0.650000 0.670000 0.690000 0.710000 0.730000 0.750000 0.770000 0.790000 0.810000 0.830000 0.850000 0.870000 0.890000 0.910000 0.930000 0.950000 0.970000 0.990000 1.010000 1.030000 1.050000 1.070000 1.090000 1.110000 1.130000 1.150000 1.170000 1.190000 1.210000 1.230000 1.250000 1.270000 1.290000 1.310000 1.330000 1.350000 1.370000 1.390000 1.410000 1.430000 1.450000 1.470000 1.490000 1.510000 1.530000 1.550000 1.570000 1.590000 1.610000 1.630000 1.650000 1.670000 1.690000 1.710000 1.730000 1.750000 1.770000 1.790000 1.810000 1.830000 1.850000 1.870000 1.890000 1.910000 1.930000 1.950000 1.970000 
Z_COORDINATES 1 double
0.0
POINT_DATA 9604
VECTORS velocity double
0.000001	0.000002	0.0
0.000001	0.000001	0.0
0.000000	0.000000	0.0
0.000000	0.000000	0.0
0.000000	0.000000	0.0
0.000000	0.000000	0.0
0.000001	0.000000	0.0
0.000001	0.000000	0.0
0.000001	0.000000	0.0
0.000001	0.000000	0.0
0.000001	0.000000	0.0
0.000001	0.000000	0.0
0.000001	0.000000	0.0
0.000002	0.000000	0.0
0.000002	0.000000	0.0
0.000002	0.000000	0.0
0.000003	0.000000	0.0
0.000003	0.000000	0.0
0.000003	0.000000	0.0
0.000004	0.000000	0.0
0.000005	0.000000	0.0
0.000005	0.000000	0.0
0.000006	0.000000	0.0
0.000007	0.000000	0.0
0.000008	0.000000	0.0
0.000009	0.000000	0.0
0.000010	0.000000	0.0
0.000011	0.000000	0.0
0.000013	0.000000	0.0
0.000015	0.000000	0.0
0.000017	0.000000	0.0
0.000019	0.000000	0.0
0.000021	0.000000	0.0
0.000024	0.000000	0.0
0.000026	0.000000	0.0
0.000030	0.000000	0.0
0.000033	0.000000	0.0
0.000037	0.000000	0.0
0.000041	0.000000	0.0
0.000046	0.000000	0.0
0.000051	0.000000	0.0
0.000057	0.000000	0.0
0.000063	0.000000	0.0
0.000070	0.000000	0.0
0.000078	0.000000	0.0
0.000086	0.000000	0.0
0.000095	0.000000	0.0
0.000105	0.000000	0.0
0.000116	0.000000	0.0
0.000128	0.000000	0.0
0.000141	0.000000	0.0
0.000155	0.000000	0.0
0.000170	0.000000	0.0
0.000187	0.000000	0.0
0.000205	0.000000	0.0
0.000225	0.000000	0.0
0.000246	0.000000	0.0
0.000270	-0.000000	0.0
0.000295	-0.000000	0.0
0.000323	-0.000000	0.0
0.000353	-0.000000	0.0
0.000385	-0.000000	0.0
0.000421	-0.000000	0.0
0.000460	-0.000000	0.0
0.000502	-0.000000	0.0
0.000548	-0.000000	0.0
0.000599	-0.000000	0.0
0.000654	-0.000001	0.0
0.000715	-0.000001	0.0
0.000782	-0.000001	0.0
0.000856	-0.000001	0.0
0.000938	-0.000001	0.0
0.001028	-0.000001	0.0
0.001129	-0.000001	0.0
0.001241	-0.000001	0.0
0.001367	-0.000001	0.0
0.001509	-0.000002	0.0
0.001669	-0.000002	0.0
0.001852	-0.000002	0.0
0.002061	-0.000002	0.0
0.002302	-0.000002	0.0
0.002582	-0.000003	0.0
0.002910	-0.000003	0.0
0.003298	-0.000003	0.0
0.003761	-0.000003	0.0
0.004322	-0.000003	0.0
0.005010	-0.000003	0.0
0.005866	-0.000003	0.0
0.006952	-0.000003	0.0
0.008361	-0.000003	0.0
0.010233	-0.000003	0.0
0.012802	-0.000003	0.0
0.016464	-0.000003	0.0
0.021945	-0.000003	0.0
0.030676	-0.000003	0.0
0.045782	-0.000003	0.0
0.074978	-0.000003	0.0
0.141643	-0.000005	0.0
0.000000	0.000000	0.0
0.000000	0.000000	0.0
0.000000	-0.000000	0.0
0.000000	-0.000000	0.0
0.000001	-0.000000	0.0
0.000001	0.000000	0.0
0.000001	0.000000	0.0
0.000001	0.000000	0.0
0.000001	0.000000	0.0
0.000002	0.000000	0.0
0.000002	0.000000	0.0
0.000002	0.000000	0.0
0.000002	0.000000	0.0
0.000003	0.000000	0.0
0.000003	0.000000	0.0
0.000004	0.000000	0.0
0.000004	0.000000	0.0
0.000005	0.000000	0.0
0.000006	0.000000	0.0
0.000007	0.000000	0.0
0.000008	0.000000	0.0
0.000009	0.000000	0.0
0.000010	0.000000	0.0
0.000011	0.000000	0.0
0.000013	0.000000	0.0
0.000015	0.000000	0.0
0.000017	0.000000	0.0
0.000019	0.000000	0.0
0.000022	0.000000	0.0
0.000024	0.000000	0.0
0.000028	0.000000	0.0
0.000031	0.000000	0.0
0.000035	0.000000	0.0
0.000039	0.000000	0.0
0.000044	0.000000	0.0
0.000049	-0.000000	0.0
0.000055	-0.000000	0.0
0.000062	-0.000000	0.0
0.000069	-0.000000	0.0
0.000077	-0.000000	0.0
0.000086	-0.000000	0.0
0.000095	-0.000000	0.0
0.000106	-0.000000	0.0
0.000117	-0.000000	0.0
0.000130	-0.000000	0.0
0.000144	-0.000000	0.0
0.000159	-0.000000	0.0
0.000175	-0.000000	0.0
0.000193	-0.000000	0.0
0.000213	-0.000000	0.0
0.000235	-0.000000	0.0
0.000258	-0.000000	0.0
0.000283	-0.000000	0.0
0.000311	-0.000000	0.0
0.000341	-0.000000	0.0
0.000374	-0.000001	0.0
0.000410	-0.000001	0.0
0.000448	-0.000001	0.0
0.000490	-0.000001	0.0
0.000536	-0.000001	0.0
0.000586	-0.000001	0.0
0.000640	-0.000001	0.0
0.000699	-0.000001	0.0
0.000764	-0.000001	0.0
0.000834	-0.000001	0.0
0.000910	-0.000001	0.0
0.000994	-0.000001	0.0
0.001086	-0.000001	0.0
0.001187	-0.000002	0.0
0.001298	-0.000002	0.0
0.001420	-0.000002	0.0
0.001554	-0.000002	0.0
0.001704	-0.000002	0.0
0.001870	-0.000003	0.0
0.002055	-0.000003	0.0
0.002263	-0.000003	0.0
0.002496	-0.000003	0.0
0.002760	-0.000004	0.0
0.003060	-0.000004	0.0
0.003403	-0.000004	0.0
0.003798	-0.000005	0.0
0.004255	-0.000005	0.0
0.004790	-0.000005	0.0
0.005421	-0.000005	0.0
0.006172	-0.000006	0.0
0.007078	-0.000006	0.0
0.008183	-0.000006	0.0
0.009551	-0.000006	0.0
0.011275	-0.000006	0.0
0.013488	-0.000006	0.0
0.016394	-0.000006	0.0
0.020316	-0.000006	0.0
0.025779	-0.000006	0.0
0.033688	-0.000005	0.0
0.045696	-0.000005	0.0
0.065051	-0.000005	0.0
0.098905	-0.000006	0.0
0.166871	-0.000008	0.0
0.000000	0.000000	0.0
0.000000	-0.000000	0.0
0.000000	-0.000000	0.0
0.000001	-0.000000	0.0
0.000001	0.000000	0.0
0.000001	0.000000	0.0
0.000001	0.000000	0.0
0.000002	0.000000	0.0
0.000002	0.000000	0.0
0.000002	0.000000	0.0
0.000003	0.000000	0.0
0.000003	0.000000	0.0
0.000003	0.000000	0.0
0.000004	0.000000	0.0
0.000005	0.000000	0.0
0.000005	0.000000	0.0
0.000006	0.000000	0.0
0.000007	0.000000	0.0
0.000008	0.000000	0.0
0.000009	0.000000	0.0
0.000011	0.000000	0.0
0.000012	0.000000	0.0
0.000014	0.000000	0.0
0.000016	0.000000	0.0
0.000018	0.000000	0.0
0.000021	0.000000	0.0
0.000024	0.000000	0.0
0.000027	0.000000	0.0
0.000030	0.000000	0.0
0.000034	0.000000	0.0
0.000038	0.000000	0.0
0.000043	0.000000	0.0
0.000049	0.000000	0.0
0.000055	0.000000	0.0
0.000062	0.000000	0.0
0.000069	0.000000	0.0
0.000077	0.000000	0.0
0.000086	-0.000000	0.0
0.000096	-0.000000	0.0
0.000107	-0.000000	0.0
0.000119	-0.000000	0.0
0.000133	-0.000000	0.0
0.000147	-0.000000	0.0
0.000164	-0.000000	0.0
0.000181	-0.000000	0.0
0.000200	-0.000000	0.0
0.000222	-0.000000	0.0
0.000245	-0.000000	0.0
0.000270	-0.000000	0.0
0.000297	-0.000000	0.0
0.000327	-0.000000	0.0
0.000360	-0.000000	0.0
0.000395	-0.000000	0.0
0.000434	-0.000001	0.0
0.000476	-0.000001	0.0
0.000521	-0.000001	0.0
0.000571	-0.000001	0.0
0.000625	-0.000001	0.0
0.000684	-0.000001	0.0
0.000747	-0.000001	0.0
0.000817	-0.000001	0.0
0.000892	-0.000001	0.0
0.000974	-0.000001	0.0
0.001063	-0.000001	0.0
0.001161	-0.000002	0.0
0.001267	-0.000002	0.0
0.001384	-0.000002	0.0
0.001511	-0.000002	0.0
0.001650	-0.000002	0.0
0.001804	-0.000002	0.0
0.001973	-0.000003	0.0
0.002159	-0.000003	0.0
0.002366	-0.000003	0.0
0.002595	-0.000004	0.0
0.002850	-0.000004	0.0
0.003136	-0.000004	0.0
0.003457	-0.000005	0.0
0.003819	-0.000005	0.0
0.004231	-0.000005	0.0
0.004700	-0.000006	0.0
0.005238	-0.000006	0.0
0.005861	-0.000007	0.0
0.006587	-0.000007	0.0
0.007440	-0.000007	0.0
0.008451	-0.000008	0.0
0.009664	-0.000008	0.0
0.011135	-0.000008	0.0
0.012943	-0.000008	0.0
0.015199	-0.000008	0.0
0.018063	-0.000008	0.0
0.021772	-0.000008	0.0
0.026685	-0.000008	0.0
0.033370	-0.000008	0.0
0.042758	-0.000007	0.0
0.056464	-0.000007	0.0
0.077514	-0.000007	0.0
0.112334	-0.000007	0.0
0.178508	-0.000009	0.0
0.000000	-0.000000	0.0
0.000000	-0.000000	0.0
0.000001	-0.000000	0.0
0.000001	0.000000	0.0
0.000001	0.000000	0.0
0.000001	0.000000	0.0
0.000002	0.000000	0.0
0.000002	0.000000	0.0
0.000002	0.000000	0.0
0.000003	0.000000	0.0
0.000003	0.000000	0.0
0.000004	0.000000	0.0
0.000004	0.000000	0.0
0.000005	0.000000	0.0
0.000006	0.000000	0.0
0.000007	0.000000	0.0
0.000008	0.000000	0.0
0.000009	0.000000	0.0
0.000011	0.000000	0.0
0.000012	0.000000	0.0
0.000014	0.000000	0.0
0.000016	0.000000	0.0
0.000018	0.000000	0.0
0.000021	0.000000	0.0
0.000023	0.000000	0.0
0.000027	0.000000	0.0
0.000030	0.000000	0.0
0.000034	0.000000	0.0
0.000039	0.000000	0.0
0.000044	0.000000	0.0
0.000049	0.000000	0.0
0.000056	0.000000	0.0
0.000063	0.000000	0.0
0.000070	0.000000	0.0
0.000079	0.000000	0.0
0.000088	0.000000	0.0
0.000099	-0.000000	0.0
0.000110	-0.000000	0.0
0.000123	-0.000000	0.0
0.000137	-0.000000	0.0
0.000153	-0.000000	0.0
0.000170	-0.000000	0.0
0.000189	-0.000000	0.0
0.000209	-0.000000	0.0
0.000232	-0.000000	0.0
0.000257	-0.000000	0.0
0.000284	-0.000000	0.0
0.000313	-0.000000	0.0
0.000345	-0.000000	0.0
0.000380	-0.000000	0.0
0.000419	-0.000001	0.0
0.000460	-0.000001	0.0
0.000506	-0.000001	0.0
0.000555	-0.000001	0.0
0.000609	-0.000001	0.0
0.000667	-0.000001	0.0
0.000730	-0.000001	0.0
0.000799	-0.000001	0.0
0.000874	-0.000001	0.0
0.000955	-0.000001	0.0
0.001043	-0.000001	0.0
0.001139	-0.000002	0.0
0.001244	-0.000002	0.0
0.001358	-0.000002	0.0
0.001482	-0.000002	0.0
0.001617	-0.000002	0.0
0.001765	-0.000002	0.0
0.001926	-0.000003	0.0
0.002104	-0.000003	0.0
0.002298	-0.000003	0.0
0.002512	-0.000003	0.0
0.002748	-0.000004	0.0
0.003009	-0.000004	0.0
0.003298	-0.000005	0.0
0.003620	-0.000005	0.0
0.003980	-0.000005	0.0
0.004384	-0.000006	0.0
0.004838	-0.000006	0.0
0.005353	-0.000007	0.0
0.005938	-0.000007	0.0
0.006609	-0.000008	0.0
0.007382	-0.000008	0.0
0.008279	-0.000009	0.0
0.009329	-0.000009	0.0
0.010569	-0.000010	0.0
0.012045	-0.000010	0.0
0.013825	-0.000010	0.0
0.015994	-0.000011	0.0
0.018675	-0.000011	0.0
0.022039	-0.000011	0.0
0.026332	-0.000010	0.0
0.031924	-0.000010	0.0
0.039374	-0.000010	0.0
0.049583	-0.000009	0.0
0.064070	-0.000009	0.0
0.085640	-0.000009	0.0
0.120264	-0.000009	0.0
0.184619	-0.000010	0.0
0.000000	-0.000000	0.0
0.000001	-0.000000	0.0
0.000001	0.000000	0.0
0.000001	0.000000	0.0
0.000001	0.000000	0.0
0.000002	0.000000	0.0
0.000002	0.000000	0.0
0.000002	0.000000	0.0
0.000003	0.000000	0.0
0.000003	0.000000	0.0
0.000004	0.000000	0.0
0.000005	0.000000	0.0
0.000005	0.000000	0.0
0.000006	0.000000	0.0
0.000007	0.000000	0.0
0.000008	0.000000	0.0
0.000010	0.000000	0.0
0.000011	0.000000	0.0
0.000013	0.000000	0.0
0.000015	0.000000	0.0
0.000017	0.000000	0.0
0.000019	0.000000	0.0
0.000022	0.000000	0.0
0.000025	0.000000	0.0
0.000028	0.000000	0.0
0.000032	0.000000	0.0
0.000037	0.000000	0.0
0.000042	0.000000	0.0
0.000047	0.000000	0.0
0.000053	0.000000	0.0
0.000060	0.000000	0.0
0.000068	0.000000	0.0
0.000076	0.000000	0.0
0.000085	0.000000	0.0
0.000096	0.000000	0.0
0.000107	-0.000000	0.0
0.000120	-0.000000	0.0
0.000134	-0.000000	0.0
0.000150	-0.000000	0.0
0.000167	-0.000000	0.0
0.000186	-0.000000	0.0
0.000207	-0.000000	0.0
0.000230	-0.000000	0.0
0.000255	-0.000000	0.0
0.000282	-0.000000	0.0
0.000312	-0.000000	0.0
0.000345	-0.000000	0.0
0.000381	-0.000000	0.0
0.000420	-0.000001	0.0
0.000462	-0.000001	0.0
0.000509	-0.000001	0.0
0.000559	-0.000001	0.0
0.000614	-0.000001	0.0
0.000674	-0.000001	0.0
0.000739	-0.000001	0.0
0.000810	-0.000001	0.0
0.000886	-0.000001	0.0
0.000970	-0.000001	0.0
0.001060	-0.000001	0.0
0.001159	-0.000002	0.0
0.001265	-0.000002	0.0
0.001381	-0.000002	0.0
0.001508	-0.000002	0.0
0.001645	-0.000002	0.0
0.001795	-0.000002	0.0
0.001958	-0.000003	0.0
0.002136	-0.000003	0.0
0.002331	-0.000003	0.0
0.002544	-0.000004	0.0
0.002777	-0.000004	0.0
0.003034	-0.000004	0.0
0.003317	-0.000005	0.0
0.003630	-0.000005	0.0
0.003976	-0.000006	0.0
0.004360	-0.000006	0.0
0.004789	-0.000007	0.0
0.005269	-0.000007	0.0
0.005809	-0.000008	0.0
0.006418	-0.000008	0.0
0.007110	-0.000009	0.0
0.007899	-0.000010	0.0
0.008806	-0.000010	0.0
0.009854	-0.000011	0.0
0.011075	-0.000011	0.0
0.012508	-0.000012	0.0
0.014206	-0.000012	0.0
0.016237	-0.000013	0.0
0.018693	-0.000013	0.0
0.021699	-0.000013	0.0
0.025429	-0.000013	0.0
0.030130	-0.000012	0.0
0.036160	-0.000012	0.0
0.044061	-0.000012	0.0
0.054686	-0.000011	0.0
0.069470	-0.000011	0.0
0.091069	-0.000010	0.0
0.125213	-0.000010	0.0
0.188173	-0.000011	0.0
0.000000	0.000000	0.0
0.000001	0.000000	0.0
0.000001	0.000000	0.0
0.000001	0.000000	0.0
0.000002	0.000000	0.0
0.000002	0.000000	0.0
0.000002	0.000000	0.0
0.000003	0.000000	0.0
0.000003	0.000000	0.0
0.000004	0.000000	0.0
0.000005	0.000000	0.0
0.000005	0.000000	0.0
0.000006	0.000000	0.0
0.000007	0.000000	0.0
0.000009	0.000000	0.0
0.000010	0.000000	0.0
0.000011	0.000000	0.0
0.000013	0.000000	0.0
0.000015	0.000000	0.0
0.000017	0.000000	0.0
0.000020	0.000000	0.0
0.000023	0.000000	0.0
0.000026	0.000000	0.0
0.000029	0.000000	0.0
0.000033	0.000000	0.0
0.000038	0.000000	0.0
0.000043	0.000000	0.0
0.000049	0.000000	0.0
0.000055	0.000000	0.0
0.000063	0.000000	0.0
0.000071	0.000000	0.0
0.000080	0.000000	0.0
0.000089	0.000000	0.0
0.000101	0.000000	0.0
0.000113	-0.000000	0.0
0.000126	-0.000000	0.0
0.000141	-0.000000	0.0
0.000158	-0.000000	0.0
0.000176	-0.000000	0.0
0.000196	-0.000000	0.0
0.000219	-0.000000	0.0
0.000243	-0.000000	0.0
0.000270	-0.000000	0.0
0.000299	-0.000000	0.0
0.000331	-0.000000	0.0
0.000367	-0.000000	0.0
0.000405	-0.000000	0.0
0.000447	-0.000001	0.0
0.000493	-0.000001	0.0
0.000543	-0.000001	0.0
0.000597	-0.000001	0.0
0.000656	-0.000001	0.0
0.000721	-0.000001	0.0
0.000791	-0.000001	0.0
0.000867	-0.000001	0.0
0.000949	-0.000001	0.0
0.001039	-0.000001	0.0
0.001137	-0.000002	0.0
0.001242	-0.000002	0.0
0.001357	-0.000002	0.0
0.001482	-0.000002	0.0
0.001617	-0.000002	0.0
0.001765	-0.000002	0.0
0.001925	-0.000003	0.0
0.002099	-0.000003	0.0
0.002289	-0.000003	0.0
0.002496	-0.000003	0.0
0.002722	-0.000004	0.0
0.002969	-0.000004	0.0
0.003240	-0.000005	0.0
0.003537	-0.000005	0.0
0.003865	-0.000005	0.0
0.004225	-0.000006	0.0
0.004624	-0.000006	0.0
0.005067	-0.000007	0.0
0.005559	-0.000008	0.0
0.006110	-0.000008	0.0
0.006726	-0.000009	0.0
0.007421	-0.000010	0.0
0.008208	-0.000010	0.0
0.009102	-0.000011	0.0
0.010126	-0.000012	0.0
0.011304	-0.000013	0.0
0.012670	-0.000013	0.0
0.014265	-0.000014	0.0
0.016143	-0.000014	0.0
0.018374	-0.000015	0.0
0.021051	-0.000015	0.0
0.024299	-0.000015	0.0
0.028289	-0.000015	0.0
0.033261	-0.000014	0.0
0.039561	-0.000014	0.0
0.047708	-0.000013	0.0
0.058516	-0.000013	0.0
0.073360	-0.000012	0.0
0.094806	-0.000011	0.0
0.128463	-0.000011	0.0
0.190408	-0.000012	0.0
0.000000	0.000000	0.0
0.000001	0.000000	0.0
0.000001	0.000000	0.0
0.000001	0.000000	0.0
0.000002	0.000000	0.0
0.000002	0.000000	0.0
0.000003	0.000000	0.0
0.000003	0.000000	0.0
0.000004	0.000000	0.0
0.000005	0.000000	0.0
0.000005	0.000000	0.0
0.000006	0.000000	0.0
0.000007	0.000000	0.0
0.000008	0.000000	0.0
0.000010	0.000000	0.0
0.000011	0.000000	0.0
0.000013	0.000000	0.0
0.000015	0.000000	0.0
0.000017	0.000000	0.0
0.000020	0.000000	0.0
0.000023	0.000000	0.0
0.000026	0.000000	0.0
0.000030	0.000000	0.0
0.000034	0.000000	0.0
0.000038	0.000000	0.0
0.000044	0.000000	0.0
0.000050	0.000000	0.0
0.000056	0.000000	0.0
0.000064	0.000000	0.0
0.000072	0.000000	0.0
0.000081	0.000000	0.0
0.000091	0.000000	0.0
0.000103	0.000000	0.0
0.000115	-0.000000	0.0
0.000129	-0.000000	0.0
0.000145	-0.000000	0.0
0.000162	-0.000000	0.0
0.000181	-0.000000	0.0
0.000202	-0.000000	0.0
0.000225	-0.000000	0.0
0.000251	-0.000000	0.0
0.000279	-0.000000	0.0
0.000309	-0.000000	0.0
0.000343	-0.000000	0.0
0.000380	-0.000000	0.0
0.000420	-0.000001	0.0
0.000464	-0.000001	0.0
0.000512	-0.000001	0.0
0.000564	-0.000001	0.0
0.000621	-0.000001	0.0
0.000684	-0.000001	0.0
0.000751	-0.000001	0.0
0.000825	-0.000001	0.0
0.000905	-0.000001	0.0
0.000991	-0.000001	0.0
0.001086	-0.000002	0.0
0.001188	-0.000002	0.0
0.001299	-0.000002	0.0
0.001420	-0.000002	0.0
0.001550	-0.000002	0.0
0.001692	-0.000002	0.0
0.001846	-0.000003	0.0
0.002014	-0.000003	0.0
0.002195	-0.000003	0.0
0.002393	-0.000003	0.0
0.002608	-0.000004	0.0
0.002843	-0.000004	0.0
0.003099	-0.000004	0.0
0.003378	-0.000005	0.0
0.003684	-0.000005	0.0
0.004019	-0.000006	0.0
0.004388	-0.000006	0.0
0.004793	-0.000007	0.0
0.005241	-0.000007	0.0
0.005737	-0.000008	0.0
0.006288	-0.000009	0.0
0.006901	-0.000009	0.0
0.007588	-0.000010	0.0
0.008359	-0.000011	0.0
0.009229	-0.000012	0.0
0.010215	-0.000013	0.0
0.011339	-0.000013	0.0
0.012628	-0.000014	0.0
0.014115	-0.000015	0.0
0.015842	-0.000016	0.0
0.017864	-0.000016	0.0
0.020251	-0.000016	0.0
0.023094	-0.000017	0.0
0.026516	-0.000017	0.0
0.030684	-0.000017	0.0
0.035829	-0.000016	0.0
0.042286	-0.000016	0.0
0.050553	-0.000015	0.0
0.061417	-0.000014	0.0
0.076212	-0.000014	0.0
0.097455	-0.000013	0.0
0.130691	-0.000012	0.0
0.191898	-0.000012	0.0
0.000000	0.000000	0.0
0.000001	0.000000	0.0
0.000001	0.000000	0.0
0.000002	0.000000	0.0
0.000002	0.000000	0.0
0.000003	0.000000	0.0
0.000003	0.000000	0.0
0.000004	0.000000	0.0
0.000004	0.000000	0.0
0.000005	0.000000	0.0
0.000006	0.000000	0.0
0.000007	0.000000	0.0
0.000008	0.000000	0.0
0.000010	0.000000	0.0
0.000011	0.000000	0.0
0.000013	0.000000	0.0
0.000015	0.000000	0.0
0.000017	0.000000	0.0
0.000019	0.000000	0.0
0.000022	0.000000	0.0
0.000026	0.000000	0.0
0.000029	0.000000	0.0
0.000033	0.000000	0.0
0.000038	0.000000	0.0
0.000043	0.000000	0.0
0.000049	0.000000	0.0
0.000056	0.000000	0.0
0.000063	0.000000	0.0
0.000072	0.000000	0.0
0.000081	0.000000	0.0
0.000091	0.000000	0.0
0.000103	0.000000	0.0
0.000116	-0.000000	0.0
0.000130	-0.000000	0.0
0.000146	-0.000000	0.0
0.000163	-0.000000	0.0
0.000182	-0.000000	0.0
0.000204	-0.000000	0.0
0.000227	-0.000000	0.0
0.000253	-0.000000	0.0
0.000282	-0.000000	0.0
0.000313	-0.000000	0.0
0.000348	-0.000000	0.0
0.000386	-0.000000	0.0
0.000427	-0.000001	0.0
0.000472	-0.000001	0.0
0.000522	-0.000001	0.0
0.000575	-0.000001	0.0
0.000634	-0.000001	0.0
0.000698	-0.000001	0.0
0.000768	-0.000001	0.0
0.000844	-0.000001	0.0
0.000926	-0.000001	0.0
0.001016	-0.000001	0.0
0.001113	-0.000002	0.0
0.001218	-0.000002	0.0
0.001333	-0.000002	0.0
0.001457	-0.000002	0.0
0.001591	-0.000002	0.0
0.001737	-0.000002	0.0
0.001896	-0.000003	0.0
0.002067	-0.000003	0.0
0.002254	-0.000003	0.0
0.002456	-0.000003	0.0
0.002676	-0.000004	0.0
0.002916	-0.000004	0.0
0.003176	-0.000004	0.0
0.003460	-0.000005	0.0
0.003770	-0.000005	0.0
0.004108	-0.000006	0.0
0.004479	-0.000006	0.0
0.004885	-0.000007	0.0
0.005332	-0.000008	0.0
0.005825	-0.000008	0.0
0.006369	-0.000009	0.0
0.006972	-0.000010	0.0
0.007643	-0.000010	0.0
0.008391	-0.000011	0.0
0.009229	-0.000012	0.0
0.010172	-0.000013	0.0
0.011237	-0.000014	0.0
0.012447	-0.000015	0.0
0.013828	-0.000016	0.0
0.015414	-0.000017	0.0
0.017248	-0.000017	0.0
0.019383	-0.000018	0.0
0.021888	-0.000018	0.0
0.024853	-0.000018	0.0
0.028398	-0.000019	0.0
0.032684	-0.000018	0.0
0.037935	-0.000018	0.0
0.044476	-0.000017	0.0
0.052788	-0.000017	0.0
0.063640	-0.000016	0.0
0.078343	-0.000015	0.0
0.099384	-0.000014	0.0
0.132276	-0.000013	0.0
0.192939	-0.000013	0.0
0.000001	0.000000	0.0
0.000001	0.000000	0.0
0.000001	0.000000	0.0
0.000002	0.000000	0.0
0.000002	0.000000	0.0
0.000003	0.000000	0.0
0.000003	0.000000	0.0
0.000004	0.000000	0.0
0.000005	0.000000	0.0
0.000006	0.000000	0.0
0.000007	0.000000	0.0
0.000008	0.000000	0.0
0.000009	0.000000	0.0
0.000011	0.000000	0.0
0.000012	0.000000	0.0
0.000014	0.000000	0.0
0.000016	0.000000	0.0
0.000019	0.000000	0.0
0.000022	0.000000	0.0
0.000025	0.000000	0.0
0.000028	0.000000	0.0
0.000032	0.000000	0.0
0.000037	0.000000	0.0
0.000042	0.000000	0.0
0.000048	0.000000	0.0
0.000055	0.000000	0.0
0.000062	0.000000	0.0
0.000070	0.000000	0.0
0.000079	0.000000	0.0
0.000090	0.000000	0.0
0.000101	0.000000	0.0
0.000114	-0.000000	0.0
0.000128	-0.000000	0.0
0.000144	-0.000000	0.0
0.000162	-0.000000	0.0
0.000181	-0.000000	0.0
0.000202	-0.000000	0.0
0.000226	-0.000000	0.0
0.000252	-0.000000	0.0
0.000281	-0.000000	0.0
0.000313	-0.000000	0.0
0.000347	-0.000000	0.0
0.000386	-0.000000	0.0
0.000427	-0.000001	0.0
0.000473	-0.000001	0.0
0.000523	-0.000001	0.0
0.000578	-0.000001	0.0
0.000637	-0.000001	0.0
0.000702	-0.000001	0.0
0.000773	-0.000001	0.0
0.000850	-0.000001	0.0
0.000933	-0.000001	0.0
0.001024	-0.000001	0.0
0.001123	-0.000002	0.0
0.001230	-0.000002	0.0
0.001346	-0.000002	0.0
0.001473	-0.000002	0.0
0.001609	-0.000002	0.0
0.001757	-0.000003	0.0
0.001918	-0.000003	0.0
0.002092	-0.000003	0.0
0.002280	-0.000003	0.0
0.002485	-0.000004	0.0
0.002707	-0.000004	0.0
0.002948	-0.000004	0.0
0.003210	-0.000005	0.0
0.003495	-0.000005	0.0
0.003805	-0.000005	0.0
0.004142	-0.000006	0.0
0.004511	-0.000006	0.0
0.004914	-0.000007	0.0
0.005356	-0.000008	0.0
0.005840	-0.000008	0.0
0.006374	-0.000009	0.0
0.006962	-0.000010	0.0
0.007612	-0.000011	0.0
0.008333	-0.000011	0.0
0.009136	-0.000012	0.0
0.010032	-0.000013	0.0
0.011038	-0.000014	0.0
0.012170	-0.000015	0.0
0.013452	-0.000016	0.0
0.014909	-0.000017	0.0
0.016576	-0.000018	0.0
0.018495	-0.000019	0.0
0.020717	-0.000019	0.0
0.023310	-0.000020	0.0
0.026363	-0.000020	0.0
0.029992	-0.000020	0.0
0.034353	-0.000020	0.0
0.039665	-0.000020	0.0
0.046242	-0.000019	0.0
0.054558	-0.000018	0.0
0.065366	-0.000017	0.0
0.079964	-0.000016	0.0
0.100823	-0.000015	0.0
0.133437	-0.000014	0.0
0.193692	-0.000014	0.0
0.000001	0.000000	0.0
0.000001	0.000000	0.0
0.000001	0.000000	0.0
0.000002	0.000000	0.0
0.000002	0.000000	0.0
0.000003	0.000000	0.0
0.000004	0.000000	0.0
0.000004	0.000000	0.0
0.000005	0.000000	0.0
0.000006	0.000000	0.0
0.000007	0.000000	0.0
0.000009	0.000000	0.0
0.000010	0.000000	0.0
0.000012	0.000000	0.0
0.000013	0.000000	0.0
0.000016	0.000000	0.0
0.000018	0.000000	0.0
0.000021	0.000000	0.0
0.000024	0.000000	0.0
0.000027	0.000000	0.0
0.000031	0.000000	0.0
0.000036	0.000000	0.0
0.000041	0.000000	0.0
0.000046	0.000000	0.0
0.000053	0.000000	0.0
0.000060	0.000000	0.0
0.000068	0.000000	0.0
0.000077	0.000000	0.0
0.000087	0.000000	0.0
0.000098	0.000000	0.0
0.000111	-0.000000	0.0
0.000125	-0.000000	0.0
0.000141	-0.000000	0.0
0.000158	-0.000000	0.0
0.000177	-0.000000	0.0
0.000198	-0.000000	0.0
0.000222	-0.000000	0.0
0.000248	-0.000000	0.0
0.000276	-0.000000	0.0
0.000308	-0.000000	0.0
0.000342	-0.000000	0.0
0.000380	-0.000000	0.0
0.000422	-0.000001	0.0
0.000468	-0.000001	0.0
0.000518	-0.000001	0.0
0.000572	-0.000001	0.0
0.000632	-0.000001	0.0
0.000697	-0.000001	0.0
0.000768	-0.000001	0.0
0.000845	-0.000001	0.0
0.000929	-0.000001	0.0
0.001020	-0.000001	0.0
0.001120	-0.000002	0.0
0.001227	-0.000002	0.0
0.001344	-0.000002	0.0
0.001470	-0.000002	0.0
0.001608	-0.000002	0.0
0.001756	-0.000003	0.0
0.001917	-0.000003	0.0
0.002091	-0.000003	0.0
0.002280	-0.000003	0.0
0.002485	-0.000004	0.0
0.002707	-0.000004	0.0
0.002947	-0.000004	0.0
0.003208	-0.000005	0.0
0.003491	-0.000005	0.0
0.003798	-0.000005	0.0
0.004132	-0.000006	0.0
0.004496	-0.000006	0.0
0.004893	-0.000007	0.0
0.005326	-0.000008	0.0
0.005799	-0.000008	0.0
0.006318	-0.000009	0.0
0.006888	-0.000010	0.0
0.007515	-0.000011	0.0
0.008207	-0.000011	0.0
0.008973	-0.000012	0.0
0.009823	-0.000013	0.0
0.010771	-0.000014	0.0
0.011830	-0.000015	0.0
0.013019	-0.000016	0.0
0.014360	-0.000018	0.0
0.015880	-0.000019	0.0
0.017612	-0.000019	0.0
0.019596	-0.000020	0.0
0.021884	-0.000021	0.0
0.024543	-0.000021	0.0
0.027658	-0.000022	0.0
0.031342	-0.000022	0.0
0.035748	-0.000022	0.0
0.041090	-0.000021	0.0
0.047676	-0.000020	0.0
0.055972	-0.000019	0.0
0.066723	-0.000018	0.0
0.081218	-0.000017	0.0
0.101919	-0.000016	0.0
0.134311	-0.000014	0.0
0.194253	-0.000014	0.0
0.000001	0.000000	0.0
0.000001	0.000000	0.0
0.000002	0.000000	0.0
0.000002	0.000000	0.0
0.000003	0.000000	0.0
0.000003	0.000000	0.0
0.000004	0.000000	0.0
0.000005	0.000000	0.0
0.000006	0.000000	0.0
0.000007	0.000000	0.0
0.000008	0.000000	0.0
0.000009	0.000000	0.0
0.000011	0.000000	0.0
0.000013	0.000000	0.0
0.000015	0.000000	0.0
0.000017	0.000000	0.0
0.000019	0.000000	0.0
0.000022	0.000000	0.0
0.000026	0.000000	0.0
0.000029	0.000000	0.0
0.000034	0.000000	0.0
0.000039	0.000000	0.0
0.000044	0.000000	0.0
0.000050	0.000000	0.0
0.000057	0.000000	0.0
0.000065	0.000000	0.0
0.000074	0.000000	0.0
0.000084	0.000000	0.0
0.000095	0.000000	0.0
0.000107	-0.000000	0.0
0.000120	-0.000000	0.0
0.000136	-0.000000	0.0
0.000153	-0.000000	0.0
0.000171	-0.000000	0.0
0.000192	-0.000000	0.0
0.000215	-0.000000	0.0
0.000241	-0.000000	0.0
0.000269	-0.000000	0.0
0.000300	-0.000000	0.0
0.000334	-0.000000	0.0
0.000371	-0.000000	0.0
0.000413	-0.000001	0.0
0.000458	-0.000001	0.0
0.000507	-0.000001	0.0
0.000561	-0.000001	0.0
0.000620	-0.000001	0.0
0.000685	-0.000001	0.0
0.000755	-0.000001	0.0
0.000832	-0.000001	0.0
0.000915	-0.000001	0.0
0.001006	-0.000001	0.0
0.001105	-0.000002	0.0
0.001211	-0.000002	0.0
0.001327	-0.000002	0.0
0.001453	-0.000002	0.0
0.001590	-0.000002	0.0
0.001737	-0.000003	0.0
0.001897	-0.000003	0.0
0.002070	-0.000003	0.0
0.002258	-0.000003	0.0
0.002461	-0.000004	0.0
0.002680	-0.000004	0.0
0.002918	-0.000004	0.0
0.003176	-0.000005	0.0
0.003455	-0.000005	0.0
0.003757	-0.000005	0.0
0.004086	-0.000006	0.0
0.004443	-0.000006	0.0
0.004830	-0.000007	0.0
0.005253	-0.000008	0.0
0.005713	-0.000008	0.0
0.006215	-0.000009	0.0
0.006765	-0.000010	0.0
0.007368	-0.000010	0.0
0.008030	-0.000011	0.0
0.008759	-0.000012	0.0
0.009564	-0.000013	0.0
0.010455	-0.000014	0.0
0.011446	-0.000015	0.0
0.012551	-0.000017	0.0
0.013788	-0.000018	0.0
0.015178	-0.000019	0.0
0.016748	-0.000020	0.0
0.018531	-0.000021	0.0
0.020566	-0.000022	0.0
0.022904	-0.000022	0.0
0.025610	-0.000023	0.0
0.028767	-0.000023	0.0
0.032486	-0.000023	0.0
0.036917	-0.000023	0.0
0.042270	-0.000022	0.0
0.048848	-0.000022	0.0
0.057112	-0.000021	0.0
0.067802	-0.000019	0.0
0.082202	-0.000018	0.0
0.102770	-0.000016	0.0
0.134983	-0.000015	0.0
0.194682	-0.000015	0.0
0.000001	0.000000	0.0
0.000001	0.000000	0.0
0.000002	0.000000	0.0
0.000002	0.000000	0.0
0.000003	0.000000	0.0
0.000004	0.000000	0.0
0.000004	0.000000	0.0
0.000005	0.000000	0.0
0.000006	0.000000	0.0
0.000007	0.000000	0.0
0.000009	0.000000	0.0
0.000010	0.000000	0.0
0.000012	0.000000	0.0
0.000014	0.000000	0.0
0.000016	0.000000	0.0
0.000018	0.000000	0.0
0.000021	0.000000	0.0
0.000024	0.000000	0.0
0.000028	0.000000	0.0
0.000032	0.000000	0.0
0.000036	0.000000	0.0
0.000042	0.000000	0.0
0.000048	0.000000	0.0
0.000054	0.000000	0.0
0.000062	0.000000	0.0
0.000070	0.000000	0.0
0.000079	0.000000	0.0
0.000090	-0.000000	0.0
0.000102	-0.000000	0.0
0.000115	-0.000000	0.0
0.000130	-0.000000	0.0
0.000146	-0.000000	0.0
0.000164	-0.000000	0.0
0.000184	-0.000000	0.0
0.000207	-0.000000	0.0
0.000232	-0.000000	0.0
0.000259	-0.000000	0.0
0.000289	-0.000000	0.0
0.000323	-0.000000	0.0
0.000359	-0.000000	0.0
0.000400	-0.000001	0.0
0.000444	-0.000001	0.0
0.000492	-0.000001	0.0
0.000545	-0.000001	0.0
0.000603	-0.000001	0.0
0.000667	-0.000001	0.0
0.000736	-0.000001	0.0
0.000811	-0.000001	0.0
0.000894	-0.000001	0.0
0.000983	-0.000001	0.0
0.001080	-0.000002	0.0
0.001185	-0.000002	0.0
0.001300	-0.000002	0.0
0.001424	-0.000002	0.0
0.001558	-0.000002	0.0
0.001704	-0.000003	0.0
0.001862	-0.000003	0.0
0.002032	-0.000003	0.0
0.002217	-0.000003	0.0
0.002417	-0.000004	0.0
0.002633	-0.000004	0.0
0.002867	-0.000004	0.0
0.003119	-0.000005	0.0
0.003393	-0.000005	0.0
0.003689	-0.000005	0.0
0.004010	-0.000006	0.0
0.004358	-0.000006	0.0
0.004735	-0.000007	0.0
0.005145	-0.000007	0.0
0.005591	-0.000008	0.0
0.006076	-0.000009	0.0
0.006604	-0.000010	0.0
0.007182	-0.000010	0.0
0.007814	-0.000011	0.0
0.008507	-0.000012	0.0
0.009268	-0.000013	0.0
0.010107	-0.000014	0.0
0.011034	-0.000015	0.0
0.012062	-0.000016	0.0
0.013205	-0.000017	0.0
0.014481	-0.000019	0.0
0.015912	-0.000020	0.0
0.017522	-0.000021	0.0
0.019345	-0.000022	0.0
0.021419	-0.000023	0.0
0.023794	-0.000023	0.0
0.026533	-0.000024	0.0
0.029718	-0.000024	0.0
0.033458	-0.000024	0.0
0.037900	-0.000024	0.0
0.043250	-0.000024	0.0
0.049811	-0.000023	0.0
0.058038	-0.000022	0.0
0.068670	-0.000020	0.0
0.082986	-0.000019	0.0
0.103441	-0.000017	0.0
0.135508	-0.000016	0.0
0.195015	-0.000015	0.0
0.000001	0.000000	0.0
0.000001	0.000000	0.0
0.000002	0.000000	0.0
0.000002	0.000000	0.0
0.000003	0.000000	0.0
0.000004	0.000000	0.0
0.000005	0.000000	0.0
0.000006	0.000000	0.0
0.000007	0.000000	0.0
0.000008	0.000000	0.0
0.000009	0.000000	0.0
0.000011	0.000000	0.0
0.000013	0.000000	0.0
0.000015	0.000000	0.0
0.000017	0.000000	0.0
0.000019	0.000000	0.0
0.000022	0.000000	0.0
0.000026	0.000000	0.0
0.000030	0.000000	0.0
0.000034	0.000000	0.0
0.000039	0.000000	0.0
0.000045	0.000000	0.0
0.000051	0.000000	0.0
0.000058	0.000000	0.0
0.000066	0.000000	0.0
0.000075	0.000000	0.0
0.000085	-0.000000	0.0
0.000096	-0.000000	0.0
0.000109	-0.000000	0.0
0.000123	-0.000000	0.0
0.000139	-0.000000	0.0
0.000156	-0.000000	0.0
0.000176	-0.000000	0.0
0.000197	-0.000000	0.0
0.000221	-0.000000	0.0
0.000248	-0.000000	0.0
0.000277	-0.000000	0.0
0.000309	-0.000000	0.0
0.000345	-0.000000	0.0
0.000384	-0.000001	0.0
0.000427	-0.000001	0.0
0.000474	-0.000001	0.0
0.000526	-0.000001	0.0
0.000582	-0.000001	0.0
0.000644	-0.000001	0.0
0.000711	-0.000001	0.0
0.000785	-0.000001	0.0
0.000865	-0.000001	0.0
0.000953	-0.000001	0.0
0.001048	-0.000002	0.0
0.001151	-0.000002	0.0
0.001263	-0.000002	0.0
0.001385	-0.000002	0.0
0.001516	-0.000002	0.0
0.001659	-0.000003	0.0
0.001814	-0.000003	0.0
0.001981	-0.000003	0.0
0.002162	-0.000003	0.0
0.002357	-0.000004	0.0
0.002568	-0.000004	0.0
0.002797	-0.000004	0.0