# vtk DataFile Version 3.0
Header
ASCII
DATASET RECTILINEAR_GRID
DIMENSIONS 98 98 1
X_COORDINATES 98 double
0.030000 0.050000 0.070000 0.090000 0.110000 0.130000 0.150000 0.170000 0.190000 0.210000 0.230000 0.250000 0.270000 0.290000 0.310000 0.330000 0.350000 0.370000 0.390000 0.410000 0.430000 0.450000 0.470000 0.490000 0.510000 0.530000 0.550000 0.570000 0.590000 0.610000 0.630000 0.650000 0.670000 0.690000 0.710000 0.730000 0.750000 0.770000 0.790000 0.810000 0.830000 0.850000 0.870000 0.890000 0.910000 0.930000 0.950000 0.970000 0.990000 1.010000 1.030000 1.050000 1.070000 1.090000 1.110000 1.130000 1.150000 1.170000 1.190000 1.210000 1.230000 1.250000 1.270000 1.290000 1.310000 1.330000 1.350000 1.370000 1.390000 1.410000 1.430000 1.450000 1.470000 1.490000 1.510000 1.530000 1.550000 1.570000 1.590000 1.610000 1.630000 1.650000 1.670000 1.690000 1.710000 1.730000 1.750000 1.770000 1.790000 1.810000 1.830000 1.850000 1.870000 1.890000 1.910000 1.930000 1.950000 1.970000 
Y_COORDINATES 98 double
0.030000 0.050000 0.070000 0.090000 0.110000 0.130000 0.150000 0.170000 0.190000 0.210000 0.230000 0.250000 0.270000 0.290000 0.310000 0.330000 0.350000 0.370000 0.390000 0.410000 0.430000 0.450000 0.470000 0.490000 0.510000 0.530000 0.550000 0.570000 0.590000 0.610000 0.630000 0.650000 0.670000 0.690000 0.710000 0.730000 0.750000 0.770000 0.790000 0.810000 0.830000 0.850000 0.870000 0.890000 0.910000 0.930000 0.950000 0.970000 0.990000 1.010000 1.030000 1.050000 1.070000 1.090000 1.110000 1.130000 1.150000 1.170000 1.190000 1.210000 1.230000 1.250000 1.270000 1.290000 1.310000 1.330000 1.350000 1.370000 1.390000 1.410000 1.430000 1.450000 1.470000 1.490000 1.510000 1.530000 1.550000 1.570000 1.590000 1.610000 1.630000 1.650000 1.670000 1.690000 1.710000 1.730000 1.750000 1.770000 1.790000 1.810000 1.830000 1.850000 1.870000 1.890000 1.910000 1.930000 1.950000 1.970000 
Z_COORDINATES 1 double
0.0
POINT_DATA 9604
VECTORS velocity double
0.000002	0.000001	0.0
0.000001	-0.000001	0.0
0.000002	-0.000001	0.0
0.000004	-0.000000	0.0
0.000005	-0.000000	0.0
0.000006	0.000000	0.0
0.000007	0.000000	0.0
0.000008	0.000000	0.0
0.000009	0.000000	0.0
0.000011	0.000000	0.0
0.000012	0.000000	0.0
0.000013	0.000000	0.0
0.000015	0.000000	0.0
0.000016	0.000000	0.0
0.000018	0.000000	0.0
0.000020	0.000000	0.0
0.000021	0.000000	0.0
0.000023	0.000000	0.0
0.000025	0.000000	0.0
0.000028	0.000000	0.0
0.000030	0.000000	0.0
0.000032	0.000000	0.0
0.000035	0.000000	0.0
0.000038	0.000000	0.0
0.000041	0.000000	0.0
0.000044	0.000000	0.0
0.000048	0.000000	0.0
0.000052	0.000000	0.0
0.000055	0.000000	0.0
0.000060	0.000000	0.0
0.000064	0.000000	0.0
0.000069	0.000000	0.0
0.000074	0.000000	0.0
0.000080	0.000000	0.0
0.000085	0.000000	0.0
0.000091	0.000000	0.0
0.000098	0.000000	0.0
0.000105	0.000000	0.0
0.000112	0.000000	0.0
0.000120	0.000000	0.0
0.000129	0.000000	0.0
0.000138	0.000000	0.0
0.000147	0.000000	0.0
0.000157	-0.000000	0.0
0.000168	-0.000000	0.0
0.000180	-0.000000	0.0
0.000192	-0.000000	0.0
0.000205	-0.000000	0.0
0.000219	-0.000000	0.0
0.000233	-0.000000	0.0
0.000249	-0.000000	0.0
0.000266	-0.000000	0.0
0.000284	-0.000000	0.0
0.000303	-0.000001	0.0
0.000323	-0.000001	0.0
0.000345	-0.000001	0.0
0.000369	-0.000001	0.0
0.000394	-0.000001	0.0
0.000421	-0.000001	0.0
0.000450	-0.000001	0.0
0.000481	-0.000001	0.0
0.000514	-0.000001	0.0
0.000550	-0.000002	0.0
0.000590	-0.000002	0.0
0.000632	-0.000002	0.0
0.000678	-0.000002	0.0
0.000728	-0.000002	0.0
0.000783	-0.000003	0.0
0.000843	-0.000003	0.0
0.000908	-0.000003	0.0
0.000980	-0.000003	0.0
0.001060	-0.000004	0.0
0.001148	-0.000004	0.0
0.001246	-0.000004	0.0
0.001356	-0.000005	0.0
0.001479	-0.000005	0.0
0.001617	-0.000006	0.0
0.001774	-0.000006	0.0
0.001953	-0.000007	0.0
0.002158	-0.000008	0.0
0.002394	-0.000008	0.0
0.002670	-0.000009	0.0
0.002993	-0.000010	0.0
0.003376	-0.000010	0.0
0.003835	-0.000011	0.0
0.004390	-0.000012	0.0
0.005072	-0.000012	0.0
0.005923	-0.000013	0.0
0.007004	-0.000014	0.0
0.008407	-0.000014	0.0
0.010274	-0.000014	0.0
0.012838	-0.000015	0.0
0.016495	-0.000015	0.0
0.021970	-0.000015	0.0
0.030697	-0.000015	0.0
0.045799	-0.000014	0.0
0.074992	-0.000012	0.0
0.141656	-0.000007	0.0
0.000001	-0.000001	0.0
0.000002	-0.000001	0.0
0.000004	-0.000001	0.0
0.000006	-0.000000	0.0
0.000008	0.000000	0.0
0.000010	0.000000	0.0
0.000012	0.000001	0.0
0.000014	0.000001	0.0
0.000016	0.000001	0.0
0.000018	0.000001	0.0
0.000020	0.000001	0.0
0.000022	0.000001	0.0
0.000025	0.000001	0.0
0.000027	0.000001	0.0
0.000030	0.000001	0.0
0.000033	0.000001	0.0
0.000036	0.000001	0.0
0.000039	0.000001	0.0
0.000042	0.000001	0.0
0.000046	0.000001	0.0
0.000050	0.000001	0.0
0.000054	0.000001	0.0
0.000058	0.000001	0.0
0.000063	0.000001	0.0
0.000068	0.000001	0.0
0.000074	0.000001	0.0
0.000080	0.000001	0.0
0.000086	0.000001	0.0
0.000092	0.000001	0.0
0.000099	0.000001	0.0
0.000107	0.000001	0.0
0.000115	0.000001	0.0
0.000123	0.000000	0.0
0.000132	0.000000	0.0
0.000142	0.000000	0.0
0.000152	0.000000	0.0
0.000163	0.000000	0.0
0.000175	0.000000	0.0
0.000187	0.000000	0.0
0.000200	0.000000	0.0
0.000214	0.000000	0.0
0.000229	0.000000	0.0
0.000245	0.000000	0.0
0.000262	0.000000	0.0
0.000280	-0.000000	0.0
0.000299	-0.000000	0.0
0.000319	-0.000000	0.0
0.000341	-0.000000	0.0
0.000364	-0.000000	0.0
0.000388	-0.000000	0.0
0.000414	-0.000000	0.0
0.000442	-0.000001	0.0
0.000472	-0.000001	0.0
0.000504	-0.000001	0.0
0.000538	-0.000001	0.0
0.000574	-0.000001	0.0
0.000613	-0.000001	0.0
0.000655	-0.000001	0.0
0.000699	-0.000002	0.0
0.000747	-0.000002	0.0
0.000799	-0.000002	0.0
0.000854	-0.000002	0.0
0.000915	-0.000002	0.0
0.000979	-0.000003	0.0
0.001050	-0.000003	0.0
0.001126	-0.000003	0.0
0.001209	-0.000004	0.0
0.001300	-0.000004	0.0
0.001399	-0.000005	0.0
0.001507	-0.000005	0.0
0.001626	-0.000005	0.0
0.001758	-0.000006	0.0
0.001904	-0.000007	0.0
0.002065	-0.000007	0.0
0.002246	-0.000008	0.0
0.002448	-0.000009	0.0
0.002676	-0.000010	0.0
0.002934	-0.000010	0.0
0.003228	-0.000011	0.0
0.003564	-0.000012	0.0
0.003951	-0.000013	0.0
0.004401	-0.000015	0.0
0.004928	-0.000016	0.0
0.005551	-0.000017	0.0
0.006294	-0.000018	0.0
0.007191	-0.000019	0.0
0.008287	-0.000020	0.0
0.009647	-0.000021	0.0
0.011361	-0.000022	0.0
0.013565	-0.000023	0.0
0.016463	-0.000024	0.0
0.020376	-0.000024	0.0
0.025830	-0.000024	0.0
0.033731	-0.000024	0.0
0.045730	-0.000024	0.0
0.065078	-0.000022	0.0
0.098927	-0.000019	0.0
0.166889	-0.000012	0.0
0.000002	-0.000001	0.0
0.000004	-0.000001	0.0
0.000007	-0.000000	0.0
0.000009	-0.000000	0.0
0.000012	0.000000	0.0
0.000014	0.000000	0.0
0.000017	0.000000	0.0
0.000019	0.000001	0.0
0.000022	0.000001	0.0
0.000025	0.000001	0.0
0.000028	0.000001	0.0
0.000031	0.000001	0.0
0.000034	0.000001	0.0
0.000038	0.000001	0.0
0.000041	0.000001	0.0
0.000045	0.000001	0.0
0.000050	0.000001	0.0
0.000054	0.000001	0.0
0.000059	0.000001	0.0
0.000064	0.000001	0.0
0.000070	0.000001	0.0
0.000075	0.000001	0.0
0.000082	0.000001	0.0
0.000088	0.000001	0.0
0.000095	0.000001	0.0
0.000103	0.000001	0.0
0.000111	0.000001	0.0
0.000120	0.000001	0.0
0.000129	0.000001	0.0
0.000139	0.000000	0.0
0.000149	0.000000	0.0
0.000160	0.000000	0.0
0.000172	0.000000	0.0
0.000185	0.000000	0.0
0.000198	0.000000	0.0
0.000213	0.000000	0.0
0.000228	0.000000	0.0
0.000244	0.000000	0.0
0.000261	0.000000	0.0
0.000280	0.000000	0.0
0.000299	-0.000000	0.0
0.000320	-0.000000	0.0
0.000342	-0.000000	0.0
0.000366	-0.000000	0.0
0.000391	-0.000000	0.0
0.000417	-0.000000	0.0
0.000445	-0.000000	0.0
0.000476	-0.000001	0.0
0.000508	-0.000001	0.0
0.000542	-0.000001	0.0
0.000578	-0.000001	0.0
0.000617	-0.000001	0.0
0.000659	-0.000001	0.0
0.000703	-0.000001	0.0
0.000750	-0.000002	0.0
0.000801	-0.000002	0.0
0.000855	-0.000002	0.0
0.000913	-0.000002	0.0
0.000975	-0.000002	0.0
0.001042	-0.000003	0.0
0.001114	-0.000003	0.0
0.001191	-0.000003	0.0
0.001274	-0.000004	0.0
0.001365	-0.000004	0.0
0.001462	-0.000005	0.0
0.001568	-0.000005	0.0
0.001683	-0.000005	0.0
0.001809	-0.000006	0.0
0.001946	-0.000007	0.0
0.002096	-0.000007	0.0
0.002261	-0.000008	0.0
0.002443	-0.000009	0.0
0.002644	-0.000010	0.0
0.002868	-0.000010	0.0
0.003117	-0.000011	0.0
0.003395	-0.000012	0.0
0.003709	-0.000014	0.0
0.004063	-0.000015	0.0
0.004465	-0.000016	0.0
0.004924	-0.000017	0.0
0.005453	-0.000019	0.0
0.006065	-0.000020	0.0
0.006780	-0.000022	0.0
0.007621	-0.000024	0.0
0.008621	-0.000025	0.0
0.009822	-0.000027	0.0
0.011280	-0.000028	0.0
0.013076	-0.000030	0.0
0.015320	-0.000031	0.0
0.018172	-0.000032	0.0
0.021868	-0.000033	0.0
0.026769	-0.000033	0.0
0.033441	-0.000033	0.0
0.042817	-0.000033	0.0
0.056513	-0.000032	0.0
0.077553	-0.000030	0.0
0.112363	-0.000026	0.0
0.178531	-0.000017	0.0
0.000003	-0.000000	0.0
0.000006	-0.000000	0.0
0.000009	-0.000000	0.0
0.000012	-0.000000	0.0
0.000015	0.000000	0.0
0.000018	0.000000	0.0
0.000021	0.000000	0.0
0.000025	0.000000	0.0
0.000028	0.000000	0.0
0.000032	0.000001	0.0
0.000035	0.000001	0.0
0.000039	0.000001	0.0
0.000044	0.000001	0.0
0.000048	0.000001	0.0
0.000053	0.000001	0.0
0.000058	0.000001	0.0
0.000064	0.000001	0.0
0.000069	0.000001	0.0
0.000075	0.000001	0.0
0.000082	0.000001	0.0
0.000089	0.000001	0.0
0.000097	0.000001	0.0
0.000105	0.000001	0.0
0.000113	0.000001	0.0
0.000122	0.000000	0.0
0.000132	0.000000	0.0
0.000142	0.000000	0.0
0.000153	0.000000	0.0
0.000165	0.000000	0.0
0.000178	0.000000	0.0
0.000191	0.000000	0.0
0.000205	0.000000	0.0
0.000221	0.000000	0.0
0.000237	0.000000	0.0
0.000254	0.000000	0.0
0.000272	0.000000	0.0
0.000292	-0.000000	0.0
0.000313	-0.000000	0.0
0.000335	-0.000000	0.0
0.000358	-0.000000	0.0
0.000383	-0.000000	0.0
0.000410	-0.000000	0.0
0.000438	-0.000000	0.0
0.000468	-0.000001	0.0
0.000500	-0.000001	0.0
0.000534	-0.000001	0.0
0.000571	-0.000001	0.0
0.000609	-0.000001	0.0
0.000650	-0.000001	0.0
0.000694	-0.000001	0.0
0.000741	-0.000002	0.0
0.000790	-0.000002	0.0
0.000843	-0.000002	0.0
0.000900	-0.000002	0.0
0.000960	-0.000002	0.0
0.001025	-0.000003	0.0
0.001094	-0.000003	0.0
0.001168	-0.000003	0.0
0.001247	-0.000003	0.0
0.001332	-0.000004	0.0
0.001424	-0.000004	0.0
0.001522	-0.000005	0.0
0.001629	-0.000005	0.0
0.001743	-0.000006	0.0
0.001868	-0.000006	0.0
0.002002	-0.000007	0.0
0.002149	-0.000007	0.0
0.002308	-0.000008	0.0
0.002482	-0.000009	0.0
0.002672	-0.000010	0.0
0.002881	-0.000010	0.0
0.003111	-0.000011	0.0
0.003366	-0.000012	0.0
0.003648	-0.000014	0.0
0.003961	-0.000015	0.0
0.004312	-0.000016	0.0
0.004706	-0.000018	0.0
0.005149	-0.000019	0.0
0.005652	-0.000021	0.0
0.006226	-0.000022	0.0
0.006884	-0.000024	0.0
0.007643	-0.000026	0.0
0.008527	-0.000028	0.0
0.009562	-0.000030	0.0
0.010786	-0.000032	0.0
0.012248	-0.000034	0.0
0.014011	-0.000036	0.0
0.016165	-0.000038	0.0
0.018830	-0.000039	0.0
0.022177	-0.000040	0.0
0.026455	-0.000041	0.0
0.032031	-0.000042	0.0
0.039466	-0.000042	0.0
0.049660	-0.000042	0.0
0.064133	-0.000040	0.0
0.085689	-0.000037	0.0
0.120301	-0.000032	0.0
0.184647	-0.000022	0.0
0.000005	-0.000000	0.0
0.000008	-0.000000	0.0
0.000011	-0.000000	0.0
0.000015	0.000000	0.0
0.000018	0.000000	0.0
0.000022	0.000000	0.0
0.000026	0.000000	0.0
0.000030	0.000000	0.0
0.000034	0.000000	0.0
0.000039	0.000000	0.0
0.000043	0.000000	0.0
0.000048	0.000000	0.0
0.000053	0.000001	0.0
0.000059	0.000001	0.0
0.000065	0.000001	0.0
0.000071	0.000001	0.0
0.000077	0.000001	0.0
0.000084	0.000001	0.0
0.000092	0.000000	0.0
0.000100	0.000000	0.0
0.000108	0.000000	0.0
0.000118	0.000000	0.0
0.000127	0.000000	0.0
0.000138	0.000000	0.0
0.000149	0.000000	0.0
0.000161	0.000000	0.0
0.000173	0.000000	0.0
0.000187	0.000000	0.0
0.000201	0.000000	0.0
0.000216	0.000000	0.0
0.000233	0.000000	0.0
0.000250	0.000000	0.0
0.000269	-0.000000	0.0
0.000288	-0.000000	0.0
0.000309	-0.000000	0.0
0.000332	-0.000000	0.0
0.000355	-0.000000	0.0
0.000381	-0.000000	0.0
0.000408	-0.000000	0.0
0.000436	-0.000001	0.0
0.000467	-0.000001	0.0
0.000499	-0.000001	0.0
0.000533	-0.000001	0.0
0.000570	-0.000001	0.0
0.000609	-0.000001	0.0
0.000650	-0.000001	0.0
0.000694	-0.000001	0.0
0.000741	-0.000002	0.0
0.000791	-0.000002	0.0
0.000844	-0.000002	0.0
0.000901	-0.000002	0.0
0.000961	-0.000002	0.0
0.001025	-0.000003	0.0
0.001094	-0.000003	0.0
0.001167	-0.000003	0.0
0.001245	-0.000003	0.0
0.001329	-0.000004	0.0
0.001418	-0.000004	0.0
0.001514	-0.000004	0.0
0.001618	-0.000005	0.0
0.001728	-0.000005	0.0
0.001847	-0.000006	0.0
0.001976	-0.000006	0.0
0.002114	-0.000007	0.0
0.002264	-0.000008	0.0
0.002427	-0.000008	0.0
0.002603	-0.000009	0.0
0.002795	-0.000010	0.0
0.003004	-0.000011	0.0
0.003233	-0.000012	0.0
0.003484	-0.000013	0.0
0.003760	-0.000014	0.0
0.004064	-0.000015	0.0
0.004401	-0.000017	0.0
0.004775	-0.000018	0.0
0.005193	-0.000020	0.0
0.005661	-0.000021	0.0
0.006187	-0.000023	0.0
0.006783	-0.000025	0.0
0.007460	-0.000027	0.0
0.008234	-0.000029	0.0
0.009124	-0.000032	0.0
0.010155	-0.000034	0.0
0.011358	-0.000036	0.0
0.012773	-0.000039	0.0
0.014452	-0.000041	0.0
0.016464	-0.000043	0.0
0.018901	-0.000045	0.0
0.021888	-0.000047	0.0
0.025599	-0.000048	0.0
0.030280	-0.000049	0.0
0.036291	-0.000050	0.0
0.044174	-0.000050	0.0
0.054780	-0.000049	0.0
0.069547	-0.000047	0.0
0.091130	-0.000044	0.0
0.125259	-0.000038	0.0
0.188206	-0.000027	0.0
0.000006	-0.000000	0.0
0.000009	-0.000000	0.0
0.000013	-0.000000	0.0
0.000018	0.000000	0.0
0.000022	0.000000	0.0
0.000026	0.000000	0.0
0.000031	0.000000	0.0
0.000035	0.000000	0.0
0.000040	0.000000	0.0
0.000045	0.000000	0.0
0.000051	0.000000	0.0
0.000057	0.000000	0.0
0.000063	0.000000	0.0
0.000069	0.000000	0.0
0.000076	0.000000	0.0
0.000083	0.000000	0.0
0.000091	0.000000	0.0
0.000099	0.000000	0.0
0.000108	0.000000	0.0
0.000118	0.000000	0.0
0.000128	0.000000	0.0
0.000138	0.000000	0.0
0.000150	0.000000	0.0
0.000162	0.000000	0.0
0.000175	0.000000	0.0
0.000189	0.000000	0.0
0.000204	0.000000	0.0
0.000220	0.000000	0.0
0.000237	0.000000	0.0
0.000255	-0.000000	0.0
0.000274	-0.000000	0.0
0.000294	-0.000000	0.0
0.000316	-0.000000	0.0
0.000339	-0.000000	0.0
0.000364	-0.000000	0.0
0.000390	-0.000000	0.0
0.000418	-0.000001	0.0
0.000448	-0.000001	0.0
0.000480	-0.000001	0.0
0.000513	-0.000001	0.0
0.000549	-0.000001	0.0
0.000587	-0.000001	0.0
0.000627	-0.000001	0.0
0.000670	-0.000001	0.0
0.000716	-0.000001	0.0
0.000765	-0.000002	0.0
0.000816	-0.000002	0.0
0.000871	-0.000002	0.0
0.000930	-0.000002	0.0
0.000992	-0.000002	0.0
0.001058	-0.000003	0.0
0.001129	-0.000003	0.0
0.001204	-0.000003	0.0
0.001284	-0.000003	0.0
0.001370	-0.000004	0.0
0.001462	-0.000004	0.0
0.001560	-0.000005	0.0
0.001664	-0.000005	0.0
0.001777	-0.000005	0.0
0.001897	-0.000006	0.0
0.002026	-0.000006	0.0
0.002165	-0.000007	0.0
0.002315	-0.000008	0.0
0.002476	-0.000008	0.0
0.002651	-0.000009	0.0
0.002840	-0.000010	0.0
0.003045	-0.000011	0.0
0.003267	-0.000012	0.0
0.003510	-0.000013	0.0
0.003775	-0.000014	0.0
0.004066	-0.000015	0.0
0.004384	-0.000017	0.0
0.004736	-0.000018	0.0
0.005124	-0.000020	0.0
0.005555	-0.000021	0.0
0.006034	-0.000023	0.0
0.006570	-0.000025	0.0
0.007172	-0.000027	0.0
0.007850	-0.000029	0.0
0.008619	-0.000032	0.0
0.009495	-0.000034	0.0
0.010500	-0.000037	0.0
0.011658	-0.000040	0.0
0.013003	-0.000042	0.0
0.014577	-0.000045	0.0
0.016433	-0.000048	0.0
0.018642	-0.000050	0.0
0.021297	-0.000052	0.0
0.024522	-0.000054	0.0
0.028489	-0.000056	0.0
0.033438	-0.000057	0.0
0.039716	-0.000057	0.0
0.047841	-0.000057	0.0
0.058628	-0.000056	0.0
0.073451	-0.000054	0.0
0.094878	-0.000050	0.0
0.128517	-0.000042	0.0
0.190445	-0.000031	0.0
0.000007	-0.000000	0.0
0.000011	-0.000000	0.0
0.000016	-0.000000	0.0
0.000020	0.000000	0.0
0.000025	0.000000	0.0
0.000030	0.000000	0.0
0.000035	0.000000	0.0
0.000041	0.000000	0.0
0.000046	0.000000	0.0
0.000052	0.000000	0.0
0.000058	0.000000	0.0
0.000065	0.000000	0.0
0.000072	0.000000	0.0
0.000079	0.000000	0.0
0.000087	0.000000	0.0
0.000096	0.000000	0.0
0.000105	0.000000	0.0
0.000114	0.000000	0.0
0.000124	0.000000	0.0
0.000135	0.000000	0.0
0.000147	0.000000	0.0
0.000159	0.000000	0.0
0.000172	0.000000	0.0
0.000186	0.000000	0.0
0.000201	0.000000	0.0
0.000217	0.000000	0.0
0.000234	-0.000000	0.0
0.000253	-0.000000	0.0
0.000272	-0.000000	0.0
0.000293	-0.000000	0.0
0.000315	-0.000000	0.0
0.000338	-0.000000	0.0
0.000363	-0.000000	0.0
0.000390	-0.000000	0.0
0.000418	-0.000001	0.0
0.000448	-0.000001	0.0
0.000480	-0.000001	0.0
0.000514	-0.000001	0.0
0.000551	-0.000001	0.0
0.000589	-0.000001	0.0
0.000630	-0.000001	0.0
0.000674	-0.000001	0.0
0.000720	-0.000002	0.0
0.000769	-0.000002	0.0
0.000821	-0.000002	0.0
0.000877	-0.000002	0.0
0.000936	-0.000002	0.0
0.000999	-0.000002	0.0
0.001066	-0.000003	0.0
0.001137	-0.000003	0.0
0.001213	-0.000003	0.0
0.001294	-0.000003	0.0
0.001380	-0.000004	0.0
0.001471	-0.000004	0.0
0.001569	-0.000005	0.0
0.001674	-0.000005	0.0
0.001785	-0.000005	0.0
0.001905	-0.000006	0.0
0.002033	-0.000006	0.0
0.002170	-0.000007	0.0
0.002317	-0.000008	0.0
0.002475	-0.000008	0.0
0.002645	-0.000009	0.0
0.002828	-0.000010	0.0
0.003026	-0.000011	0.0
0.003240	-0.000011	0.0
0.003472	-0.000013	0.0
0.003724	-0.000014	0.0
0.003999	-0.000015	0.0
0.004298	-0.000016	0.0
0.004625	-0.000017	0.0
0.004984	-0.000019	0.0
0.005379	-0.000021	0.0
0.005814	-0.000022	0.0
0.006296	-0.000024	0.0
0.006832	-0.000026	0.0
0.007429	-0.000029	0.0
0.008098	-0.000031	0.0
0.008851	-0.000033	0.0
0.009701	-0.000036	0.0
0.010666	-0.000039	0.0
0.011768	-0.000042	0.0
0.013034	-0.000045	0.0
0.014498	-0.000048	0.0
0.016201	-0.000051	0.0
0.018198	-0.000054	0.0
0.020559	-0.000056	0.0
0.023377	-0.000059	0.0
0.026773	-0.000061	0.0
0.030915	-0.000062	0.0
0.036035	-0.000064	0.0
0.042466	-0.000064	0.0
0.050708	-0.000063	0.0
0.061547	-0.000062	0.0
0.076319	-0.000059	0.0
0.097539	-0.000055	0.0
0.130754	-0.000047	0.0
0.191941	-0.000034	0.0
0.000007	-0.000000	0.0
0.000012	-0.000000	0.0
0.000018	0.000000	0.0
0.000023	0.000000	0.0
0.000028	0.000000	0.0
0.000034	0.000000	0.0
0.000040	0.000000	0.0
0.000046	0.000000	0.0
0.000052	0.000000	0.0
0.000059	0.000000	0.0
0.000066	0.000000	0.0
0.000073	0.000000	0.0
0.000081	0.000000	0.0
0.000090	0.000000	0.0
0.000099	0.000000	0.0
0.000108	0.000000	0.0
0.000118	0.000000	0.0
0.000129	0.000000	0.0
0.000140	0.000000	0.0
0.000152	0.000000	0.0
0.000166	0.000000	0.0
0.000179	0.000000	0.0
0.000194	0.000000	0.0
0.000210	0.000000	0.0
0.000227	-0.000000	0.0
0.000245	-0.000000	0.0
0.000264	-0.000000	0.0
0.000285	-0.000000	0.0
0.000307	-0.000000	0.0
0.000330	-0.000000	0.0
0.000355	-0.000000	0.0
0.000381	-0.000001	0.0
0.000409	-0.000001	0.0
0.000439	-0.000001	0.0
0.000471	-0.000001	0.0
0.000505	-0.000001	0.0
0.000541	-0.000001	0.0
0.000580	-0.000001	0.0
0.000620	-0.000001	0.0
0.000664	-0.000001	0.0
0.000710	-0.000002	0.0
0.000759	-0.000002	0.0
0.000811	-0.000002	0.0
0.000866	-0.000002	0.0
0.000925	-0.000002	0.0
0.000987	-0.000002	0.0
0.001054	-0.000003	0.0
0.001124	-0.000003	0.0
0.001200	-0.000003	0.0
0.001279	-0.000003	0.0
0.001364	-0.000004	0.0
0.001455	-0.000004	0.0
0.001551	-0.000004	0.0
0.001654	-0.000005	0.0
0.001764	-0.000005	0.0
0.001881	-0.000006	0.0
0.002005	-0.000006	0.0
0.002139	-0.000007	0.0
0.002282	-0.000007	0.0
0.002435	-0.000008	0.0
0.002599	-0.000009	0.0
0.002775	-0.000009	0.0
0.002965	-0.000010	0.0
0.003169	-0.000011	0.0
0.003389	-0.000012	0.0
0.003627	-0.000013	0.0
0.003885	-0.000014	0.0
0.004164	-0.000015	0.0
0.004468	-0.000017	0.0
0.004799	-0.000018	0.0
0.005161	-0.000020	0.0
0.005557	-0.000021	0.0
0.005991	-0.000023	0.0
0.006470	-0.000025	0.0
0.006999	-0.000027	0.0
0.007585	-0.000030	0.0
0.008238	-0.000032	0.0
0.008966	-0.000035	0.0
0.009783	-0.000037	0.0
0.010704	-0.000040	0.0
0.011746	-0.000043	0.0
0.012931	-0.000046	0.0
0.014286	-0.000050	0.0
0.015846	-0.000053	0.0
0.017653	-0.000056	0.0
0.019760	-0.000059	0.0
0.022237	-0.000062	0.0
0.025173	-0.000065	0.0
0.028689	-0.000067	0.0
0.032946	-0.000069	0.0
0.038169	-0.000070	0.0
0.044680	-0.000070	0.0
0.052965	-0.000069	0.0
0.063789	-0.000068	0.0
0.078465	-0.000064	0.0
0.099480	-0.000059	0.0
0.132347	-0.000050	0.0
0.192987	-0.000037	0.0
0.000008	-0.000000	0.0
0.000014	0.000000	0.0
0.000020	0.000000	0.0
0.000025	0.000000	0.0
0.000031	0.000000	0.0
0.000038	0.000000	0.0
0.000044	0.000000	0.0
0.000051	0.000000	0.0
0.000058	0.000000	0.0
0.000065	0.000000	0.0
0.000073	0.000000	0.0
0.000082	0.000000	0.0
0.000090	0.000000	0.0
0.000100	0.000000	0.0
0.000110	0.000000	0.0
0.000120	0.000000	0.0
0.000131	0.000000	0.0
0.000143	0.000000	0.0
0.000156	0.000000	0.0
0.000170	0.000000	0.0
0.000184	0.000000	0.0
0.000200	-0.000000	0.0
0.000216	-0.000000	0.0
0.000234	-0.000000	0.0
0.000252	-0.000000	0.0
0.000272	-0.000000	0.0
0.000294	-0.000000	0.0
0.000317	-0.000000	0.0
0.000341	-0.000000	0.0
0.000367	-0.000001	0.0
0.000394	-0.000001	0.0
0.000424	-0.000001	0.0
0.000455	-0.000001	0.0
0.000488	-0.000001	0.0
0.000524	-0.000001	0.0
0.000561	-0.000001	0.0
0.000601	-0.000001	0.0
0.000644	-0.000001	0.0
0.000689	-0.000002	0.0
0.000737	-0.000002	0.0
0.000788	-0.000002	0.0
0.000842	-0.000002	0.0
0.000900	-0.000002	0.0
0.000961	-0.000002	0.0
0.001026	-0.000003	0.0
0.001096	-0.000003	0.0
0.001169	-0.000003	0.0
0.001247	-0.000003	0.0
0.001330	-0.000004	0.0
0.001419	-0.000004	0.0
0.001512	-0.000004	0.0
0.001612	-0.000005	0.0
0.001719	-0.000005	0.0
0.001832	-0.000005	0.0
0.001953	-0.000006	0.0
0.002082	-0.000006	0.0
0.002220	-0.000007	0.0
0.002367	-0.000008	0.0
0.002524	-0.000008	0.0
0.002692	-0.000009	0.0
0.002873	-0.000010	0.0
0.003066	-0.000010	0.0
0.003274	-0.000011	0.0
0.003498	-0.000012	0.0
0.003739	-0.000013	0.0
0.004000	-0.000014	0.0
0.004281	-0.000016	0.0
0.004587	-0.000017	0.0
0.004918	-0.000019	0.0
0.005278	-0.000020	0.0
0.005671	-0.000022	0.0
0.006101	-0.000024	0.0
0.006572	-0.000026	0.0
0.007090	-0.000028	0.0
0.007661	-0.000030	0.0
0.008293	-0.000032	0.0
0.008994	-0.000035	0.0
0.009775	-0.000038	0.0
0.010648	-0.000041	0.0
0.011629	-0.000044	0.0
0.012736	-0.000047	0.0
0.013990	-0.000051	0.0
0.015419	-0.000054	0.0
0.017057	-0.000058	0.0
0.018945	-0.000061	0.0
0.021137	-0.000064	0.0
0.023699	-0.000067	0.0
0.026720	-0.000070	0.0
0.030317	-0.000072	0.0
0.034646	-0.000074	0.0
0.039926	-0.000075	0.0
0.046472	-0.000075	0.0
0.054756	-0.000074	0.0
0.065534	-0.000072	0.0
0.080102	-0.000069	0.0
0.100932	-0.000063	0.0
0.133519	-0.000054	0.0
0.193746	-0.000039	0.0
0.000009	-0.000000	0.0
0.000015	-0.000000	0.0
0.000022	0.000000	0.0
0.000028	0.000000	0.0
0.000035	0.000000	0.0
0.000042	0.000000	0.0
0.000049	0.000000	0.0
0.000056	0.000000	0.0
0.000064	0.000000	0.0
0.000072	0.000000	0.0
0.000081	0.000000	0.0
0.000090	0.000000	0.0
0.000099	0.000000	0.0
0.000110	0.000000	0.0
0.000120	0.000000	0.0
0.000132	0.000000	0.0
0.000144	0.000000	0.0
0.000157	0.000000	0.0
0.000171	-0.000000	0.0
0.000186	-0.000000	0.0
0.000202	-0.000000	0.0
0.000219	-0.000000	0.0
0.000237	-0.000000	0.0
0.000257	-0.000000	0.0
0.000277	-0.000000	0.0
0.000299	-0.000000	0.0
0.000323	-0.000000	0.0
0.000348	-0.000001	0.0
0.000375	-0.000001	0.0
0.000403	-0.000001	0.0
0.000433	-0.000001	0.0
0.000465	-0.000001	0.0
0.000500	-0.000001	0.0
0.000536	-0.000001	0.0
0.000575	-0.000001	0.0
0.000616	-0.000001	0.0
0.000660	-0.000002	0.0
0.000707	-0.000002	0.0
0.000756	-0.000002	0.0
0.000809	-0.000002	0.0
0.000865	-0.000002	0.0
0.000924	-0.000002	0.0
0.000987	-0.000003	0.0
0.001054	-0.000003	0.0
0.001126	-0.000003	0.0
0.001201	-0.000003	0.0
0.001282	-0.000004	0.0
0.001367	-0.000004	0.0
0.001458	-0.000004	0.0
0.001554	-0.000004	0.0
0.001657	-0.000005	0.0
0.001766	-0.000005	0.0
0.001882	-0.000006	0.0
0.002006	-0.000006	0.0
0.002137	-0.000007	0.0
0.002278	-0.000007	0.0
0.002427	-0.000008	0.0
0.002587	-0.000008	0.0
0.002758	-0.000009	0.0
0.002941	-0.000010	0.0
0.003137	-0.000011	0.0
0.003347	-0.000012	0.0
0.003573	-0.000013	0.0
0.003815	-0.000014	0.0
0.004076	-0.000015	0.0
0.004357	-0.000016	0.0
0.004661	-0.000017	0.0
0.004990	-0.000019	0.0
0.005347	-0.000020	0.0
0.005734	-0.000022	0.0
0.006156	-0.000024	0.0
0.006617	-0.000026	0.0
0.007121	-0.000028	0.0
0.007674	-0.000030	0.0
0.008283	-0.000033	0.0
0.008954	-0.000035	0.0
0.009698	-0.000038	0.0
0.010525	-0.000041	0.0
0.011447	-0.000044	0.0
0.012479	-0.000047	0.0
0.013640	-0.000051	0.0
0.014952	-0.000055	0.0
0.016441	-0.000058	0.0
0.018140	-0.000062	0.0
0.020092	-0.000065	0.0
0.022347	-0.000069	0.0
0.024972	-0.000072	0.0
0.028052	-0.000075	0.0
0.031701	-0.000077	0.0
0.036072	-0.000079	0.0
0.041380	-0.000080	0.0
0.047931	-0.000080	0.0
0.056192	-0.000079	0.0
0.066910	-0.000077	0.0
0.081372	-0.000073	0.0
0.102041	-0.000066	0.0
0.134402	-0.000056	0.0
0.194313	-0.000041	0.0
0.000010	-0.000000	0.0
0.000017	-0.000000	0.0
0.000024	-0.000000	0.0
0.000031	-0.000000	0.0
0.000038	0.000000	0.0
0.000045	0.000000	0.0
0.000053	0.000000	0.0
0.000061	0.000000	0.0
0.000070	0.000000	0.0
0.000078	0.000000	0.0
0.000088	0.000000	0.0
0.000098	0.000000	0.0
0.000108	0.000000	0.0
0.000119	0.000000	0.0
0.000131	-0.000000	0.0
0.000144	-0.000000	0.0
0.000157	-0.000000	0.0
0.000171	-0.000000	0.0
0.000187	-0.000000	0.0
0.000203	-0.000000	0.0
0.000220	-0.000000	0.0
0.000239	-0.000000	0.0
0.000258	-0.000000	0.0
0.000279	-0.000000	0.0
0.000302	-0.000000	0.0
0.000326	-0.000001	0.0
0.000351	-0.000001	0.0
0.000379	-0.000001	0.0
0.000408	-0.000001	0.0
0.000438	-0.000001	0.0
0.000471	-0.000001	0.0
0.000506	-0.000001	0.0
0.000543	-0.000001	0.0
0.000583	-0.000001	0.0
0.000625	-0.000001	0.0
0.000670	-0.000002	0.0
0.000718	-0.000002	0.0
0.000768	-0.000002	0.0
0.000822	-0.000002	0.0
0.000879	-0.000002	0.0
0.000940	-0.000002	0.0
0.001004	-0.000003	0.0
0.001073	-0.000003	0.0
0.001145	-0.000003	0.0
0.001222	-0.000003	0.0
0.001304	-0.000004	0.0
0.001391	-0.000004	0.0
0.001484	-0.000004	0.0
0.001582	-0.000005	0.0
0.001686	-0.000005	0.0
0.001797	-0.000005	0.0
0.001915	-0.000006	0.0
0.002040	-0.000006	0.0
0.002174	-0.000007	0.0
0.002316	-0.000007	0.0
0.002467	-0.000008	0.0
0.002629	-0.000009	0.0
0.002801	-0.000009	0.0
0.002985	-0.000010	0.0
0.003181	-0.000011	0.0
0.003392	-0.000012	0.0
0.003617	-0.000013	0.0
0.003859	-0.000014	0.0
0.004119	-0.000015	0.0
0.004398	-0.000016	0.0
0.004699	-0.000017	0.0
0.005024	-0.000019	0.0
0.005375	-0.000020	0.0
0.005755	-0.000022	0.0
0.006167	-0.000024	0.0
0.006615	-0.000026	0.0
0.007104	-0.000028	0.0
0.007637	-0.000030	0.0
0.008222	-0.000032	0.0
0.008864	-0.000035	0.0
0.009571	-0.000038	0.0
0.010352	-0.000041	0.0
0.011218	-0.000044	0.0
0.012182	-0.000047	0.0
0.013257	-0.000051	0.0
0.014464	-0.000054	0.0
0.015822	-0.000058	0.0
0.017359	-0.000062	0.0
0.019107	-0.000066	0.0
0.021107	-0.000070	0.0
0.023409	-0.000073	0.0
0.026078	-0.000077	0.0
0.029198	-0.000080	0.0
0.032879	-0.000082	0.0
0.037272	-0.000084	0.0
0.042587	-0.000085	0.0
0.049127	-0.000084	0.0
0.057354	-0.000083	0.0
0.068008	-0.000081	0.0
0.082372	-0.000076	0.0
0.102905	-0.000069	0.0
0.135083	-0.000059	0.0
0.194747	-0.000043	0.0
0.000011	-0.000000	0.0
0.000018	-0.000000	0.0
0.000025	-0.000000	0.0
0.000033	-0.000000	0.0
0.000041	-0.000000	0.0
0.000049	-0.000000	0.0
0.000057	-0.000000	0.0
0.000066	-0.000000	0.0
0.000075	-0.000000	0.0
0.000085	-0.000000	0.0
0.000095	-0.000000	0.0
0.000106	-0.000000	0.0
0.000117	-0.000000	0.0
0.000129	-0.000000	0.0
0.000142	-0.000000	0.0
0.000155	-0.000000	0.0
0.000170	-0.000000	0.0
0.000185	-0.000000	0.0
0.000202	-0.000000	0.0
0.000219	-0.000000	0.0
0.000238	-0.000000	0.0
0.000258	-0.000000	0.0
0.000279	-0.000000	0.0
0.000302	-0.000001	0.0
0.000326	-0.000001	0.0
0.000352	-0.000001	0.0
0.000379	-0.000001	0.0
0.000409	-0.000001	0.0
0.000440	-0.000001	0.0
0.000473	-0.000001	0.0
0.000509	-0.000001	0.0
0.000546	-0.000001	0.0
0.000586	-0.000001	0.0
0.000629	-0.000002	0.0
0.000674	-0.000002	0.0
0.000723	-0.000002	0.0
0.000774	-0.000002	0.0
0.000828	-0.000002	0.0
0.000886	-0.000002	0.0
0.000948	-0.000003	0.0
0.001013	-0.000003	0.0
0.001082	-0.000003	0.0
0.001156	-0.000003	0.0
0.001234	-0.000004	0.0
0.001317	-0.000004	0.0
0.001405	-0.000004	0.0
0.001498	-0.000004	0.0
0.001597	-0.000005	0.0
0.001703	-0.000005	0.0
0.001814	-0.000005	0.0
0.001933	-0.000006	0.0
0.002059	-0.000006	0.0
0.002194	-0.000007	0.0
0.002336	-0.000007	0.0
0.002488	-0.000008	0.0
0.002650	-0.000009	0.0
0.002823	-0.000009	0.0
0.003007	-0.000010	0.0
0.003203	-0.000011	0.0
0.003412	-0.000012	0.0
0.003637	-0.000013	0.0
0.003876	-0.000014	0.0
0.004134	-0.000015	0.0
0.004410	-0.000016	0.0
0.004706	-0.000017	0.0
0.005025	-0.000019	0.0
0.005369	-0.000020	0.0
0.005740	-0.000022	0.0
0.006141	-0.000024	0.0
0.006576	-0.000025	0.0
0.007048	-0.000028	0.0
0.007562	-0.000030	0.0
0.008122	-0.000032	0.0
0.008735	-0.000035	0.0
0.009406	-0.000037	0.0
0.010144	-0.000040	0.0
0.010958	-0.000043	0.0
0.011857	-0.000047	0.0
0.012856	-0.000050	0.0
0.013968	-0.000054	0.0
0.015211	-0.000058	0.0
0.016608	-0.000061	0.0
0.018183	-0.000065	0.0
0.019968	-0.000069	0.0
0.022005	-0.000073	0.0
0.024341	-0.000077	0.0
0.027040	-0.000081	0.0
0.030185	-0.000084	0.0
0.033884	-0.000086	0.0
0.038286	-0.000088	0.0
0.043596	-0.000089	0.0
0.050116	-0.000088	0.0
0.058303	-0.000087	0.0
0.068895	-0.000084	0.0
0.083172	-0.000079	0.0
0.103589	-0.000072	0.0
0.135618	-0.000061	0.0
0.195086	-0.000044	0.0
0.000012	-0.000000	0.0
0.000019	-0.000000	0.0
0.000027	-0.000000	0.0
0.000035	-0.000000	0.0
0.000044	-0.000000	0.0
0.000052	-0.000000	0.0
0.000061	-0.000000	0.0
0.000071	-0.000000	0.0
0.000081	-0.000000	0.0
0.000091	-0.000000	0.0
0.000102	-0.000000	0.0
0.000113	-0.000000	0.0
0.000125	-0.000000	0.0
0.000138	-0.000000	0.0
0.000152	-0.000000	0.0
0.000167	-0.000000	0.0
0.000182	-0.000000	0.0
0.000199	-0.000000	0.0
0.000216	-0.000000	0.0
0.000235	-0.000000	0.0
0.000255	-0.000000	0.0
0.000276	-0.000001	0.0
0.000299	-0.000001	0.0
0.000324	-0.000001	0.0
0.000350	-0.000001	0.0
0.000377	-0.000001	0.0
0.000407	-0.000001	0.0
0.000438	-0.000001	0.0
0.000471	-0.000001	0.0
0.000507	-0.000001	0.0
0.000545	-0.000001	0.0
0.000585	-0.000002	0.0
0.000628	-0.000002	0.0
0.000674	-0.000002	0.0
0.000722	-0.000002	0.0
0.000774	-0.000002	0.0
0.000829	-0.000002	0.0
0.000887	-0.000002	0.0
0.000949	-0.000003	0.0
0.001015	-0.000003	0.0
0.001084	-0.000003	0.0
0.001158	-0.000003	0.0
0.001237	-0.000004	0.0
0.001320	-0.000004	0.0
0.001408	-0.000004	0.0
0.001502	-0.000004	0.0
0.001602	-0.000005	0.0
0.001707	-0.000005	0.0
0.001819	-0.000006	0.0
0.001939	-0.000006	0.0
0.002065	-0.000006	0.0
0.002199	-0.000007	0.0
0.002342	-0.000007	0.0
0.002494	-0.000008	0.0
0.002655	-0.000009	0.0