# vtk DataFile Version 3.0
Header
ASCII
DATASET RECTILINEAR_GRID
DIMENSIONS 98 98 1
X_COORDINATES 98 double
0.030000 0.050000 0.070000 0.090000 0.110000 0.130000 0.150000 0.170000 0.190000 0.210000 0.230000 0.250000 0.270000 0.290000 0.310000 0.330000 0.350000 0.370000 0.390000 0.410000 0.430000 0.450000 0.470000 0.490000 0.510000 0.530000 0.550000 0.570000 0.590000 0.610000 0.630000 0.650000 0.670000 0.690000 0.710000 0.730000 0.750000 0.770000 0.790000 0.810000 0.830000 0.850000 0.870000 0.890000 0.910000 0.930000 0.950000 0.970000 0.990000 1.010000 1.030000 1.050000 1.070000 1.090000 1.110000 1.130000 1.150000 1.170000 1.190000 1.210000 1.230000 1.250000 1.270000 1.290000 1.310000 1.330000 1.350000 1.370000 1.390000 1.410000 1.430000 1.450000 1.470000 1.490000 1.510000 1.530000 1.550000 1.570000 1.590000 1.610000 1.630000 1.650000 1.670000 1.690000 1.710000 1.730000 1.750000 1.770000 1.790000 1.810000 1.830000 1.850000 1.870000 1.890000 1.910000 1.930000 1.950000 1.970000 
Y_COORDINATES 98 double
0.030000 0.050000 0.070000 0.090000 0.110000 0.130000 0.150000 0.170000 0.190000 0.210000 0.230000 0.250000 0.270000 0.290000 0.310000 0.330000 0.350000 0.370000 0.390000 0.410000 0.430000 0.450000 0.470000 0.490000 0.510000 0.530000 0.550000 0.570000 0.590000 0.610000 0.630000 0.650000 0.670000 0.690000 0.710000 0.730000 0.750000 0.770000 0.790000 0.810000 0.830000 0.850000 0.870000 0.890000 0.910000 0.930000 0.950000 0.970000 0.990000 1.010000 1.030000 1.050000 1.070000 1.090000 1.110000 1.130000 1.150000 1.170000 1.190000 1.210000 1.230000 1.250000 1.270000 1.290000 1.310000 1.330000 1.350000 1.370000 1.390000 1.410000 1.430000 1.450000 1.470000 1.490000 1.510000 1.530000 1.550000 1.570000 1.590000 1.610000 1.630000 1.650000 1.670000 1.690000 1.710000 1.730000 1.750000 1.770000 1.790000 1.810000 1.830000 1.850000 1.870000 1.890000 1.910000 1.930000 1.950000 1.970000 
Z_COORDINATES 1 double
0.0
POINT_DATA 9604
VECTORS velocity double
0.000003	0.000001	0.0
0.000005	0.000002	0.0
0.000006	0.000001	0.0
0.000006	0.000000	0.0
0.000007	0.000000	0.0
0.000009	0.000000	0.0
0.000010	0.000000	0.0
0.000012	0.000000	0.0
0.000014	0.000000	0.0
0.000015	0.000000	0.0
0.000017	0.000000	0.0
0.000019	0.000000	0.0
0.000021	0.000000	0.0
0.000023	0.000000	0.0
0.000025	0.000000	0.0
0.000027	0.000000	0.0
0.000029	0.000000	0.0
0.000032	0.000000	0.0
0.000034	0.000000	0.0
0.000037	0.000000	0.0
0.000040	0.000000	0.0
0.000043	0.000000	0.0
0.000046	0.000000	0.0
0.000050	0.000000	0.0
0.000053	0.000000	0.0
0.000057	0.000000	0.0
0.000061	0.000000	0.0
0.000065	0.000000	0.0
0.000070	0.000000	0.0
0.000074	0.000000	0.0
0.000079	0.000000	0.0
0.000085	-0.000000	0.0
0.000090	-0.000000	0.0
0.000096	-0.000000	0.0
0.000102	-0.000000	0.0
0.000109	-0.000000	0.0
0.000116	-0.000000	0.0
0.000124	-0.000000	0.0
0.000131	-0.000000	0.0
0.000140	-0.000000	0.0
0.000149	-0.000000	0.0
0.000158	-0.000000	0.0
0.000168	-0.000001	0.0
0.000178	-0.000001	0.0
0.000189	-0.000001	0.0
0.000201	-0.000001	0.0
0.000214	-0.000001	0.0
0.000227	-0.000001	0.0
0.000241	-0.000001	0.0
0.000256	-0.000001	0.0
0.000272	-0.000001	0.0
0.000289	-0.000001	0.0
0.000307	-0.000001	0.0
0.000326	-0.000002	0.0
0.000346	-0.000002	0.0
0.000368	-0.000002	0.0
0.000392	-0.000002	0.0
0.000417	-0.000002	0.0
0.000444	-0.000002	0.0
0.000473	-0.000002	0.0
0.000504	-0.000003	0.0
0.000537	-0.000003	0.0
0.000573	-0.000003	0.0
0.000612	-0.000003	0.0
0.000654	-0.000003	0.0
0.000700	-0.000003	0.0
0.000750	-0.000004	0.0
0.000804	-0.000004	0.0
0.000864	-0.000004	0.0
0.000929	-0.000004	0.0
0.001001	-0.000005	0.0
0.001080	-0.000005	0.0
0.001168	-0.000005	0.0
0.001265	-0.000005	0.0
0.001374	-0.000006	0.0
0.001497	-0.000006	0.0
0.001635	-0.000006	0.0
0.001791	-0.000007	0.0
0.001969	-0.000007	0.0
0.002174	-0.000008	0.0
0.002410	-0.000008	0.0
0.002685	-0.000008	0.0
0.003007	-0.000009	0.0
0.003390	-0.000009	0.0
0.003848	-0.000010	0.0
0.004402	-0.000010	0.0
0.005084	-0.000010	0.0
0.005934	-0.000011	0.0
0.007015	-0.000011	0.0
0.008417	-0.000011	0.0
0.010283	-0.000011	0.0
0.012846	-0.000011	0.0
0.016502	-0.000011	0.0
0.021977	-0.000010	0.0
0.030704	-0.000009	0.0
0.045803	-0.000007	0.0
0.074994	-0.000006	0.0
0.141652	-0.000008	0.0
0.000005	0.000002	0.0
0.000007	0.000001	0.0
0.000008	0.000000	0.0
0.000010	-0.000000	0.0
0.000012	-0.000000	0.0
0.000015	-0.000000	0.0
0.000017	-0.000000	0.0
0.000020	-0.000000	0.0
0.000023	-0.000000	0.0
0.000026	-0.000000	0.0
0.000028	-0.000000	0.0
0.000032	-0.000000	0.0
0.000035	-0.000000	0.0
0.000038	-0.000000	0.0
0.000042	-0.000000	0.0
0.000045	-0.000000	0.0
0.000049	-0.000000	0.0
0.000053	-0.000000	0.0
0.000057	-0.000000	0.0
0.000062	-0.000000	0.0
0.000067	-0.000000	0.0
0.000072	-0.000000	0.0
0.000077	-0.000000	0.0
0.000083	-0.000000	0.0
0.000089	-0.000000	0.0
0.000095	-0.000000	0.0
0.000101	-0.000000	0.0
0.000109	-0.000000	0.0
0.000116	-0.000000	0.0
0.000124	-0.000001	0.0
0.000132	-0.000001	0.0
0.000141	-0.000001	0.0
0.000150	-0.000001	0.0
0.000160	-0.000001	0.0
0.000171	-0.000001	0.0
0.000182	-0.000001	0.0
0.000193	-0.000001	0.0
0.000206	-0.000001	0.0
0.000219	-0.000001	0.0
0.000233	-0.000001	0.0
0.000247	-0.000001	0.0
0.000263	-0.000001	0.0
0.000279	-0.000002	0.0
0.000297	-0.000002	0.0
0.000315	-0.000002	0.0
0.000335	-0.000002	0.0
0.000355	-0.000002	0.0
0.000378	-0.000002	0.0
0.000401	-0.000002	0.0
0.000426	-0.000002	0.0
0.000452	-0.000003	0.0
0.000480	-0.000003	0.0
0.000510	-0.000003	0.0
0.000542	-0.000003	0.0
0.000576	-0.000003	0.0
0.000613	-0.000004	0.0
0.000651	-0.000004	0.0
0.000693	-0.000004	0.0
0.000738	-0.000004	0.0
0.000786	-0.000005	0.0
0.000837	-0.000005	0.0
0.000892	-0.000005	0.0
0.000952	-0.000005	0.0
0.001017	-0.000006	0.0
0.001087	-0.000006	0.0
0.001163	-0.000006	0.0
0.001245	-0.000007	0.0
0.001335	-0.000007	0.0
0.001434	-0.000008	0.0
0.001541	-0.000008	0.0
0.001660	-0.000008	0.0
0.001791	-0.000009	0.0
0.001936	-0.000009	0.0
0.002097	-0.000010	0.0
0.002277	-0.000010	0.0
0.002479	-0.000011	0.0
0.002706	-0.000011	0.0
0.002963	-0.000012	0.0
0.003255	-0.000012	0.0
0.003591	-0.000013	0.0
0.003977	-0.000014	0.0
0.004426	-0.000014	0.0
0.004952	-0.000015	0.0
0.005574	-0.000016	0.0
0.006316	-0.000016	0.0
0.007211	-0.000017	0.0
0.008306	-0.000018	0.0
0.009665	-0.000018	0.0
0.011378	-0.000019	0.0
0.013581	-0.000019	0.0
0.016478	-0.000019	0.0
0.020389	-0.000019	0.0
0.025843	-0.000018	0.0
0.033742	-0.000017	0.0
0.045741	-0.000015	0.0
0.065087	-0.000013	0.0
0.098931	-0.000011	0.0
0.166887	-0.000012	0.0
0.000005	0.000001	0.0
0.000008	0.000000	0.0
0.000011	-0.000000	0.0
0.000014	-0.000000	0.0
0.000017	-0.000000	0.0
0.000021	-0.000000	0.0
0.000024	-0.000000	0.0
0.000028	0.000000	0.0
0.000032	0.000000	0.0
0.000036	0.000000	0.0
0.000040	0.000000	0.0
0.000044	0.000000	0.0
0.000049	0.000000	0.0
0.000053	0.000000	0.0
0.000058	0.000000	0.0
0.000063	0.000000	0.0
0.000069	0.000000	0.0
0.000074	-0.000000	0.0
0.000080	-0.000000	0.0
0.000087	-0.000000	0.0
0.000093	-0.000000	0.0
0.000100	-0.000000	0.0
0.000108	-0.000000	0.0
0.000116	-0.000000	0.0
0.000124	-0.000000	0.0
0.000133	-0.000000	0.0
0.000142	-0.000000	0.0
0.000152	-0.000000	0.0
0.000162	-0.000001	0.0
0.000173	-0.000001	0.0
0.000185	-0.000001	0.0
0.000197	-0.000001	0.0
0.000210	-0.000001	0.0
0.000224	-0.000001	0.0
0.000238	-0.000001	0.0
0.000254	-0.000001	0.0
0.000270	-0.000001	0.0
0.000287	-0.000001	0.0
0.000306	-0.000001	0.0
0.000325	-0.000002	0.0
0.000345	-0.000002	0.0
0.000367	-0.000002	0.0
0.000390	-0.000002	0.0
0.000414	-0.000002	0.0
0.000440	-0.000002	0.0
0.000467	-0.000002	0.0
0.000496	-0.000003	0.0
0.000527	-0.000003	0.0
0.000560	-0.000003	0.0
0.000594	-0.000003	0.0
0.000631	-0.000003	0.0
0.000671	-0.000004	0.0
0.000712	-0.000004	0.0
0.000757	-0.000004	0.0
0.000804	-0.000005	0.0
0.000855	-0.000005	0.0
0.000909	-0.000005	0.0
0.000967	-0.000005	0.0
0.001029	-0.000006	0.0
0.001095	-0.000006	0.0
0.001167	-0.000007	0.0
0.001244	-0.000007	0.0
0.001327	-0.000007	0.0
0.001417	-0.000008	0.0
0.001514	-0.000008	0.0
0.001619	-0.000009	0.0
0.001734	-0.000009	0.0
0.001859	-0.000010	0.0
0.001995	-0.000010	0.0
0.002144	-0.000011	0.0
0.002309	-0.000011	0.0
0.002490	-0.000012	0.0
0.002690	-0.000013	0.0
0.002912	-0.000013	0.0
0.003160	-0.000014	0.0
0.003438	-0.000015	0.0
0.003750	-0.000016	0.0
0.004103	-0.000016	0.0
0.004504	-0.000017	0.0
0.004962	-0.000018	0.0
0.005489	-0.000019	0.0
0.006100	-0.000020	0.0
0.006813	-0.000021	0.0
0.007653	-0.000022	0.0
0.008651	-0.000023	0.0
0.009850	-0.000023	0.0
0.011307	-0.000024	0.0
0.013101	-0.000025	0.0
0.015344	-0.000025	0.0
0.018194	-0.000026	0.0
0.021889	-0.000026	0.0
0.026788	-0.000025	0.0
0.033459	-0.000025	0.0
0.042833	-0.000023	0.0
0.056527	-0.000021	0.0
0.077565	-0.000018	0.0
0.112371	-0.000014	0.0
0.178531	-0.000014	0.0
0.000006	0.000000	0.0
0.000010	-0.000000	0.0
0.000014	-0.000000	0.0
0.000018	-0.000000	0.0
0.000022	-0.000000	0.0
0.000027	0.000000	0.0
0.000031	0.000000	0.0
0.000036	0.000000	0.0
0.000041	0.000000	0.0
0.000046	0.000000	0.0
0.000051	0.000000	0.0
0.000057	0.000000	0.0
0.000062	0.000000	0.0
0.000068	0.000000	0.0
0.000075	0.000000	0.0
0.000081	0.000000	0.0
0.000088	0.000000	0.0
0.000095	0.000000	0.0
0.000103	-0.000000	0.0
0.000111	-0.000000	0.0
0.000120	-0.000000	0.0
0.000129	-0.000000	0.0
0.000138	-0.000000	0.0
0.000148	-0.000000	0.0
0.000159	-0.000000	0.0
0.000170	-0.000000	0.0
0.000182	-0.000000	0.0
0.000195	-0.000001	0.0
0.000208	-0.000001	0.0
0.000222	-0.000001	0.0
0.000237	-0.000001	0.0
0.000253	-0.000001	0.0
0.000269	-0.000001	0.0
0.000287	-0.000001	0.0
0.000306	-0.000001	0.0
0.000326	-0.000001	0.0
0.000346	-0.000002	0.0
0.000369	-0.000002	0.0
0.000392	-0.000002	0.0
0.000417	-0.000002	0.0
0.000443	-0.000002	0.0
0.000471	-0.000002	0.0
0.000500	-0.000002	0.0
0.000531	-0.000003	0.0
0.000564	-0.000003	0.0
0.000599	-0.000003	0.0
0.000636	-0.000003	0.0
0.000675	-0.000004	0.0
0.000717	-0.000004	0.0
0.000762	-0.000004	0.0
0.000809	-0.000004	0.0
0.000859	-0.000005	0.0
0.000912	-0.000005	0.0
0.000969	-0.000005	0.0
0.001029	-0.000006	0.0
0.001094	-0.000006	0.0
0.001163	-0.000007	0.0
0.001237	-0.000007	0.0
0.001316	-0.000007	0.0
0.001401	-0.000008	0.0
0.001492	-0.000008	0.0
0.001591	-0.000009	0.0
0.001696	-0.000009	0.0
0.001811	-0.000010	0.0
0.001934	-0.000011	0.0
0.002068	-0.000011	0.0
0.002214	-0.000012	0.0
0.002372	-0.000012	0.0
0.002545	-0.000013	0.0
0.002734	-0.000014	0.0
0.002942	-0.000015	0.0
0.003171	-0.000015	0.0
0.003424	-0.000016	0.0
0.003705	-0.000017	0.0
0.004017	-0.000018	0.0
0.004366	-0.000019	0.0
0.004758	-0.000020	0.0
0.005201	-0.000021	0.0
0.005702	-0.000022	0.0
0.006274	-0.000023	0.0
0.006930	-0.000024	0.0
0.007688	-0.000025	0.0
0.008569	-0.000026	0.0
0.009603	-0.000027	0.0
0.010825	-0.000029	0.0
0.012285	-0.000030	0.0
0.014046	-0.000031	0.0
0.016198	-0.000031	0.0
0.018860	-0.000032	0.0
0.022206	-0.000032	0.0
0.026482	-0.000032	0.0
0.032055	-0.000032	0.0
0.039489	-0.000031	0.0
0.049681	-0.000029	0.0
0.064151	-0.000026	0.0
0.085705	-0.000022	0.0
0.120312	-0.000018	0.0
0.184649	-0.000017	0.0
0.000007	-0.000000	0.0
0.000012	-0.000000	0.0
0.000017	-0.000000	0.0
0.000022	-0.000000	0.0
0.000027	-0.000000	0.0
0.000033	0.000000	0.0
0.000038	0.000000	0.0
0.000044	0.000000	0.0
0.000050	0.000000	0.0
0.000056	0.000000	0.0
0.000062	0.000000	0.0
0.000069	0.000000	0.0
0.000076	0.000000	0.0
0.000083	0.000000	0.0
0.000091	0.000000	0.0
0.000099	-0.000000	0.0
0.000107	-0.000000	0.0
0.000116	-0.000000	0.0
0.000126	-0.000000	0.0
0.000135	-0.000000	0.0
0.000146	-0.000000	0.0
0.000157	-0.000000	0.0
0.000168	-0.000000	0.0
0.000181	-0.000000	0.0
0.000194	-0.000001	0.0
0.000207	-0.000001	0.0
0.000222	-0.000001	0.0
0.000237	-0.000001	0.0
0.000253	-0.000001	0.0
0.000271	-0.000001	0.0
0.000289	-0.000001	0.0
0.000308	-0.000001	0.0
0.000328	-0.000001	0.0
0.000350	-0.000001	0.0
0.000372	-0.000002	0.0
0.000397	-0.000002	0.0
0.000422	-0.000002	0.0
0.000449	-0.000002	0.0
0.000477	-0.000002	0.0
0.000507	-0.000002	0.0
0.000539	-0.000003	0.0
0.000573	-0.000003	0.0
0.000609	-0.000003	0.0
0.000647	-0.000003	0.0
0.000687	-0.000004	0.0
0.000729	-0.000004	0.0
0.000774	-0.000004	0.0
0.000822	-0.000004	0.0
0.000873	-0.000005	0.0
0.000926	-0.000005	0.0
0.000984	-0.000006	0.0
0.001044	-0.000006	0.0
0.001109	-0.000006	0.0
0.001178	-0.000007	0.0
0.001251	-0.000007	0.0
0.001330	-0.000008	0.0
0.001414	-0.000008	0.0
0.001503	-0.000009	0.0
0.001599	-0.000009	0.0
0.001702	-0.000010	0.0
0.001812	-0.000010	0.0
0.001931	-0.000011	0.0
0.002058	-0.000012	0.0
0.002196	-0.000012	0.0
0.002345	-0.000013	0.0
0.002507	-0.000014	0.0
0.002682	-0.000014	0.0
0.002873	-0.000015	0.0
0.003081	-0.000016	0.0
0.003308	-0.000017	0.0
0.003558	-0.000018	0.0
0.003832	-0.000019	0.0
0.004135	-0.000020	0.0
0.004471	-0.000021	0.0
0.004843	-0.000022	0.0
0.005259	-0.000023	0.0
0.005725	-0.000024	0.0
0.006250	-0.000025	0.0
0.006843	-0.000026	0.0
0.007518	-0.000028	0.0
0.008290	-0.000029	0.0
0.009178	-0.000030	0.0
0.010207	-0.000032	0.0
0.011408	-0.000033	0.0
0.012821	-0.000034	0.0
0.014498	-0.000036	0.0
0.016507	-0.000037	0.0
0.018941	-0.000038	0.0
0.021926	-0.000038	0.0
0.025634	-0.000039	0.0
0.030313	-0.000039	0.0
0.036321	-0.000038	0.0
0.044201	-0.000037	0.0
0.054805	-0.000035	0.0
0.069570	-0.000031	0.0
0.091149	-0.000027	0.0
0.125273	-0.000022	0.0
0.188210	-0.000020	0.0
0.000009	-0.000000	0.0
0.000014	-0.000000	0.0
0.000020	-0.000000	0.0
0.000026	-0.000000	0.0
0.000032	-0.000000	0.0
0.000039	-0.000000	0.0
0.000045	-0.000000	0.0
0.000052	0.000000	0.0
0.000059	0.000000	0.0
0.000066	0.000000	0.0
0.000074	0.000000	0.0
0.000081	-0.000000	0.0
0.000090	-0.000000	0.0
0.000098	-0.000000	0.0
0.000107	-0.000000	0.0
0.000116	-0.000000	0.0
0.000126	-0.000000	0.0
0.000137	-0.000000	0.0
0.000148	-0.000000	0.0
0.000159	-0.000000	0.0
0.000172	-0.000000	0.0
0.000185	-0.000000	0.0
0.000198	-0.000001	0.0
0.000213	-0.000001	0.0
0.000228	-0.000001	0.0
0.000244	-0.000001	0.0
0.000261	-0.000001	0.0
0.000279	-0.000001	0.0
0.000298	-0.000001	0.0
0.000319	-0.000001	0.0
0.000340	-0.000001	0.0
0.000363	-0.000002	0.0
0.000386	-0.000002	0.0
0.000412	-0.000002	0.0
0.000438	-0.000002	0.0
0.000467	-0.000002	0.0
0.000497	-0.000002	0.0
0.000528	-0.000003	0.0
0.000562	-0.000003	0.0
0.000597	-0.000003	0.0
0.000635	-0.000003	0.0
0.000674	-0.000004	0.0
0.000716	-0.000004	0.0
0.000761	-0.000004	0.0
0.000808	-0.000004	0.0
0.000857	-0.000005	0.0
0.000910	-0.000005	0.0
0.000966	-0.000005	0.0
0.001026	-0.000006	0.0
0.001089	-0.000006	0.0
0.001156	-0.000007	0.0
0.001227	-0.000007	0.0
0.001303	-0.000008	0.0
0.001384	-0.000008	0.0
0.001470	-0.000009	0.0
0.001561	-0.000009	0.0
0.001659	-0.000010	0.0
0.001764	-0.000010	0.0
0.001876	-0.000011	0.0
0.001996	-0.000012	0.0
0.002125	-0.000012	0.0
0.002263	-0.000013	0.0
0.002412	-0.000014	0.0
0.002573	-0.000015	0.0
0.002746	-0.000015	0.0
0.002934	-0.000016	0.0
0.003138	-0.000017	0.0
0.003359	-0.000018	0.0
0.003601	-0.000019	0.0
0.003864	-0.000020	0.0
0.004153	-0.000021	0.0
0.004470	-0.000022	0.0
0.004820	-0.000023	0.0
0.005206	-0.000024	0.0
0.005635	-0.000026	0.0
0.006112	-0.000027	0.0
0.006646	-0.000028	0.0
0.007245	-0.000030	0.0
0.007921	-0.000031	0.0
0.008688	-0.000032	0.0
0.009562	-0.000034	0.0
0.010564	-0.000035	0.0
0.011719	-0.000037	0.0
0.013062	-0.000038	0.0
0.014633	-0.000040	0.0
0.016486	-0.000041	0.0
0.018692	-0.000043	0.0
0.021344	-0.000044	0.0
0.024566	-0.000044	0.0
0.028530	-0.000045	0.0
0.033476	-0.000045	0.0
0.039751	-0.000044	0.0
0.047873	-0.000042	0.0
0.058657	-0.000040	0.0
0.073477	-0.000036	0.0
0.094901	-0.000031	0.0
0.128533	-0.000025	0.0
0.190451	-0.000022	0.0
0.000010	-0.000000	0.0
0.000017	-0.000000	0.0
0.000023	-0.000000	0.0
0.000030	-0.000000	0.0
0.000037	-0.000000	0.0
0.000045	-0.000000	0.0
0.000052	-0.000000	0.0
0.000060	-0.000000	0.0
0.000068	-0.000000	0.0
0.000076	-0.000000	0.0
0.000085	-0.000000	0.0
0.000094	-0.000000	0.0
0.000103	-0.000000	0.0
0.000113	-0.000000	0.0
0.000123	-0.000000	0.0
0.000134	-0.000000	0.0
0.000145	-0.000000	0.0
0.000157	-0.000000	0.0
0.000170	-0.000000	0.0
0.000183	-0.000001	0.0
0.000197	-0.000001	0.0
0.000212	-0.000001	0.0
0.000228	-0.000001	0.0
0.000245	-0.000001	0.0
0.000262	-0.000001	0.0
0.000281	-0.000001	0.0
0.000300	-0.000001	0.0
0.000321	-0.000001	0.0
0.000343	-0.000001	0.0
0.000366	-0.000002	0.0
0.000391	-0.000002	0.0
0.000417	-0.000002	0.0
0.000444	-0.000002	0.0
0.000473	-0.000002	0.0
0.000504	-0.000002	0.0
0.000536	-0.000003	0.0
0.000570	-0.000003	0.0
0.000607	-0.000003	0.0
0.000645	-0.000003	0.0
0.000686	-0.000004	0.0
0.000728	-0.000004	0.0
0.000774	-0.000004	0.0
0.000822	-0.000005	0.0
0.000873	-0.000005	0.0
0.000927	-0.000005	0.0
0.000984	-0.000006	0.0
0.001044	-0.000006	0.0
0.001108	-0.000006	0.0
0.001176	-0.000007	0.0
0.001249	-0.000007	0.0
0.001325	-0.000008	0.0
0.001407	-0.000008	0.0
0.001493	-0.000009	0.0
0.001585	-0.000009	0.0
0.001684	-0.000010	0.0
0.001788	-0.000011	0.0
0.001900	-0.000011	0.0
0.002019	-0.000012	0.0
0.002147	-0.000013	0.0
0.002283	-0.000013	0.0
0.002430	-0.000014	0.0
0.002587	-0.000015	0.0
0.002757	-0.000016	0.0
0.002939	-0.000017	0.0
0.003136	-0.000018	0.0
0.003349	-0.000019	0.0
0.003579	-0.000020	0.0
0.003830	-0.000021	0.0
0.004103	-0.000022	0.0
0.004400	-0.000023	0.0
0.004725	-0.000024	0.0
0.005082	-0.000025	0.0
0.005475	-0.000027	0.0
0.005908	-0.000028	0.0
0.006388	-0.000029	0.0
0.006922	-0.000031	0.0
0.007516	-0.000032	0.0
0.008183	-0.000034	0.0
0.008932	-0.000035	0.0
0.009780	-0.000037	0.0
0.010742	-0.000039	0.0
0.011842	-0.000040	0.0
0.013105	-0.000042	0.0
0.014565	-0.000044	0.0
0.016265	-0.000045	0.0
0.018259	-0.000047	0.0
0.020617	-0.000048	0.0
0.023431	-0.000049	0.0
0.026823	-0.000050	0.0
0.030962	-0.000050	0.0
0.036078	-0.000050	0.0
0.042506	-0.000049	0.0
0.050745	-0.000048	0.0
0.061581	-0.000045	0.0
0.076348	-0.000041	0.0
0.097565	-0.000035	0.0
0.130773	-0.000029	0.0
0.191948	-0.000024	0.0
0.000011	-0.000000	0.0
0.000019	-0.000000	0.0
0.000026	-0.000000	0.0
0.000034	-0.000000	0.0
0.000042	-0.000000	0.0
0.000050	-0.000000	0.0
0.000059	-0.000000	0.0
0.000067	-0.000000	0.0
0.000076	-0.000000	0.0
0.000086	-0.000000	0.0
0.000095	-0.000000	0.0
0.000106	-0.000000	0.0
0.000116	-0.000000	0.0
0.000127	-0.000000	0.0
0.000139	-0.000000	0.0
0.000151	-0.000000	0.0
0.000164	-0.000000	0.0
0.000177	-0.000001	0.0
0.000192	-0.000001	0.0
0.000207	-0.000001	0.0
0.000223	-0.000001	0.0
0.000239	-0.000001	0.0
0.000257	-0.000001	0.0
0.000276	-0.000001	0.0
0.000296	-0.000001	0.0
0.000317	-0.000001	0.0
0.000339	-0.000001	0.0
0.000362	-0.000002	0.0
0.000387	-0.000002	0.0
0.000413	-0.000002	0.0
0.000441	-0.000002	0.0
0.000470	-0.000002	0.0
0.000501	-0.000002	0.0
0.000533	-0.000003	0.0
0.000568	-0.000003	0.0
0.000604	-0.000003	0.0
0.000643	-0.000003	0.0
0.000684	-0.000004	0.0
0.000727	-0.000004	0.0
0.000773	-0.000004	0.0
0.000821	-0.000005	0.0
0.000872	-0.000005	0.0
0.000926	-0.000005	0.0
0.000983	-0.000006	0.0
0.001044	-0.000006	0.0
0.001108	-0.000006	0.0
0.001176	-0.000007	0.0
0.001248	-0.000007	0.0
0.001324	-0.000008	0.0
0.001405	-0.000008	0.0
0.001491	-0.000009	0.0
0.001583	-0.000009	0.0
0.001680	-0.000010	0.0
0.001783	-0.000011	0.0
0.001893	-0.000011	0.0
0.002010	-0.000012	0.0
0.002135	-0.000013	0.0
0.002268	-0.000013	0.0
0.002411	-0.000014	0.0
0.002563	-0.000015	0.0
0.002727	-0.000016	0.0
0.002902	-0.000017	0.0
0.003091	-0.000018	0.0
0.003294	-0.000019	0.0
0.003513	-0.000020	0.0
0.003750	-0.000021	0.0
0.004006	-0.000022	0.0
0.004283	-0.000023	0.0
0.004585	-0.000025	0.0
0.004914	-0.000026	0.0
0.005274	-0.000027	0.0
0.005667	-0.000028	0.0
0.006100	-0.000030	0.0
0.006576	-0.000031	0.0
0.007102	-0.000033	0.0
0.007686	-0.000034	0.0
0.008335	-0.000036	0.0
0.009061	-0.000038	0.0
0.009875	-0.000039	0.0
0.010793	-0.000041	0.0
0.011831	-0.000043	0.0
0.013013	-0.000045	0.0
0.014365	-0.000047	0.0
0.015922	-0.000049	0.0
0.017725	-0.000050	0.0
0.019828	-0.000052	0.0
0.022301	-0.000053	0.0
0.025234	-0.000055	0.0
0.028746	-0.000055	0.0
0.032999	-0.000056	0.0
0.038218	-0.000055	0.0
0.044726	-0.000054	0.0
0.053006	-0.000052	0.0
0.063827	-0.000049	0.0
0.078499	-0.000045	0.0
0.099509	-0.000038	0.0
0.132369	-0.000031	0.0
0.192996	-0.000027	0.0
0.000013	-0.000000	0.0
0.000021	-0.000000	0.0
0.000029	-0.000000	0.0
0.000038	-0.000000	0.0
0.000047	-0.000000	0.0
0.000056	-0.000000	0.0
0.000065	-0.000000	0.0
0.000075	-0.000000	0.0
0.000085	-0.000000	0.0
0.000095	-0.000000	0.0
0.000106	-0.000000	0.0
0.000117	-0.000000	0.0
0.000129	-0.000000	0.0
0.000142	-0.000000	0.0
0.000155	-0.000000	0.0
0.000168	-0.000001	0.0
0.000182	-0.000001	0.0
0.000197	-0.000001	0.0
0.000213	-0.000001	0.0
0.000230	-0.000001	0.0
0.000248	-0.000001	0.0
0.000266	-0.000001	0.0
0.000286	-0.000001	0.0
0.000307	-0.000001	0.0
0.000329	-0.000001	0.0
0.000352	-0.000002	0.0
0.000377	-0.000002	0.0
0.000403	-0.000002	0.0
0.000430	-0.000002	0.0
0.000459	-0.000002	0.0
0.000490	-0.000002	0.0
0.000522	-0.000003	0.0
0.000557	-0.000003	0.0
0.000593	-0.000003	0.0
0.000631	-0.000003	0.0
0.000672	-0.000004	0.0
0.000714	-0.000004	0.0
0.000760	-0.000004	0.0
0.000808	-0.000004	0.0
0.000858	-0.000005	0.0
0.000912	-0.000005	0.0
0.000968	-0.000005	0.0
0.001028	-0.000006	0.0
0.001092	-0.000006	0.0
0.001159	-0.000007	0.0
0.001230	-0.000007	0.0
0.001305	-0.000008	0.0
0.001384	-0.000008	0.0
0.001469	-0.000009	0.0
0.001558	-0.000009	0.0
0.001653	-0.000010	0.0
0.001754	-0.000011	0.0
0.001861	-0.000011	0.0
0.001975	-0.000012	0.0
0.002097	-0.000013	0.0
0.002226	-0.000013	0.0
0.002363	-0.000014	0.0
0.002510	-0.000015	0.0
0.002667	-0.000016	0.0
0.002835	-0.000017	0.0
0.003015	-0.000018	0.0
0.003207	-0.000019	0.0
0.003414	-0.000020	0.0
0.003637	-0.000021	0.0
0.003877	-0.000022	0.0
0.004136	-0.000023	0.0
0.004416	-0.000025	0.0
0.004719	-0.000026	0.0
0.005048	-0.000027	0.0
0.005406	-0.000029	0.0
0.005797	-0.000030	0.0
0.006224	-0.000032	0.0
0.006693	-0.000033	0.0
0.007208	-0.000035	0.0
0.007776	-0.000036	0.0
0.008404	-0.000038	0.0
0.009102	-0.000040	0.0
0.009880	-0.000042	0.0
0.010750	-0.000043	0.0
0.011728	-0.000045	0.0
0.012831	-0.000047	0.0
0.014082	-0.000049	0.0
0.015507	-0.000051	0.0
0.017141	-0.000053	0.0
0.019025	-0.000055	0.0
0.021213	-0.000057	0.0
0.023771	-0.000058	0.0
0.026788	-0.000059	0.0
0.030380	-0.000060	0.0
0.034705	-0.000060	0.0
0.039981	-0.000060	0.0
0.046522	-0.000059	0.0
0.054802	-0.000057	0.0
0.065576	-0.000053	0.0
0.080139	-0.000048	0.0
0.100964	-0.000042	0.0
0.133543	-0.000034	0.0
0.193756	-0.000028	0.0
0.000014	-0.000000	0.0
0.000023	-0.000000	0.0
0.000032	-0.000000	0.0
0.000042	-0.000000	0.0
0.000052	-0.000000	0.0
0.000062	-0.000000	0.0
0.000072	-0.000000	0.0
0.000083	-0.000000	0.0
0.000094	-0.000000	0.0
0.000105	-0.000000	0.0
0.000117	-0.000000	0.0
0.000129	-0.000000	0.0
0.000142	-0.000000	0.0
0.000156	-0.000001	0.0
0.000170	-0.000001	0.0
0.000185	-0.000001	0.0
0.000201	-0.000001	0.0
0.000217	-0.000001	0.0
0.000235	-0.000001	0.0
0.000253	-0.000001	0.0
0.000272	-0.000001	0.0
0.000293	-0.000001	0.0
0.000314	-0.000001	0.0
0.000337	-0.000002	0.0
0.000361	-0.000002	0.0
0.000387	-0.000002	0.0
0.000414	-0.000002	0.0
0.000442	-0.000002	0.0
0.000473	-0.000002	0.0
0.000504	-0.000003	0.0
0.000538	-0.000003	0.0
0.000574	-0.000003	0.0
0.000611	-0.000003	0.0
0.000651	-0.000004	0.0
0.000693	-0.000004	0.0
0.000738	-0.000004	0.0
0.000785	-0.000004	0.0
0.000834	-0.000005	0.0
0.000887	-0.000005	0.0
0.000942	-0.000005	0.0
0.001001	-0.000006	0.0
0.001063	-0.000006	0.0
0.001128	-0.000007	0.0
0.001198	-0.000007	0.0
0.001271	-0.000007	0.0
0.001349	-0.000008	0.0
0.001431	-0.000009	0.0
0.001518	-0.000009	0.0
0.001610	-0.000010	0.0
0.001708	-0.000010	0.0
0.001812	-0.000011	0.0
0.001922	-0.000012	0.0
0.002039	-0.000012	0.0
0.002163	-0.000013	0.0
0.002295	-0.000014	0.0
0.002436	-0.000015	0.0
0.002585	-0.000016	0.0
0.002745	-0.000017	0.0
0.002916	-0.000018	0.0
0.003098	-0.000019	0.0
0.003293	-0.000020	0.0
0.003502	-0.000021	0.0
0.003726	-0.000022	0.0
0.003967	-0.000023	0.0
0.004227	-0.000024	0.0
0.004506	-0.000026	0.0
0.004808	-0.000027	0.0
0.005135	-0.000028	0.0
0.005490	-0.000030	0.0
0.005875	-0.000031	0.0
0.006294	-0.000033	0.0
0.006752	-0.000034	0.0
0.007253	-0.000036	0.0
0.007803	-0.000038	0.0
0.008409	-0.000040	0.0
0.009077	-0.000041	0.0
0.009817	-0.000043	0.0
0.010641	-0.000045	0.0
0.011559	-0.000047	0.0
0.012588	-0.000049	0.0
0.013745	-0.000051	0.0
0.015052	-0.000053	0.0
0.016537	-0.000055	0.0
0.018233	-0.000057	0.0
0.020180	-0.000059	0.0
0.022430	-0.000061	0.0
0.025050	-0.000063	0.0
0.028126	-0.000064	0.0
0.031771	-0.000065	0.0
0.036137	-0.000065	0.0
0.041440	-0.000064	0.0
0.047986	-0.000063	0.0
0.056243	-0.000061	0.0
0.066955	-0.000057	0.0
0.081412	-0.000052	0.0
0.102076	-0.000045	0.0
0.134428	-0.000036	0.0
0.194325	-0.000030	0.0
0.000015	-0.000000	0.0
0.000025	-0.000000	0.0
0.000035	-0.000000	0.0
0.000046	-0.000000	0.0
0.000056	-0.000000	0.0
0.000067	-0.000000	0.0
0.000078	-0.000000	0.0
0.000090	-0.000000	0.0
0.000102	-0.000000	0.0
0.000114	-0.000000	0.0
0.000127	-0.000000	0.0
0.000141	-0.000001	0.0
0.000155	-0.000001	0.0
0.000170	-0.000001	0.0
0.000185	-0.000001	0.0
0.000201	-0.000001	0.0
0.000218	-0.000001	0.0
0.000236	-0.000001	0.0
0.000255	-0.000001	0.0
0.000275	-0.000001	0.0
0.000297	-0.000001	0.0
0.000319	-0.000002	0.0
0.000342	-0.000002	0.0
0.000367	-0.000002	0.0
0.000394	-0.000002	0.0
0.000421	-0.000002	0.0
0.000451	-0.000002	0.0
0.000482	-0.000002	0.0
0.000514	-0.000003	0.0
0.000549	-0.000003	0.0
0.000586	-0.000003	0.0
0.000624	-0.000003	0.0
0.000665	-0.000004	0.0
0.000708	-0.000004	0.0
0.000754	-0.000004	0.0
0.000802	-0.000005	0.0
0.000853	-0.000005	0.0
0.000907	-0.000005	0.0
0.000964	-0.000006	0.0
0.001024	-0.000006	0.0
0.001088	-0.000006	0.0
0.001155	-0.000007	0.0
0.001226	-0.000007	0.0
0.001301	-0.000008	0.0
0.001381	-0.000008	0.0
0.001465	-0.000009	0.0
0.001554	-0.000009	0.0
0.001648	-0.000010	0.0
0.001748	-0.000011	0.0
0.001854	-0.000011	0.0
0.001966	-0.000012	0.0
0.002085	-0.000013	0.0
0.002211	-0.000014	0.0
0.002345	-0.000014	0.0
0.002487	-0.000015	0.0
0.002639	-0.000016	0.0
0.002800	-0.000017	0.0
0.002972	-0.000018	0.0
0.003156	-0.000019	0.0
0.003352	-0.000020	0.0
0.003562	-0.000021	0.0
0.003786	-0.000023	0.0
0.004026	-0.000024	0.0
0.004285	-0.000025	0.0
0.004562	-0.000026	0.0
0.004861	-0.000028	0.0
0.005184	-0.000029	0.0
0.005532	-0.000031	0.0
0.005910	-0.000032	0.0
0.006320	-0.000034	0.0
0.006765	-0.000036	0.0
0.007251	-0.000037	0.0
0.007781	-0.000039	0.0
0.008362	-0.000041	0.0
0.009001	-0.000043	0.0
0.009704	-0.000045	0.0
0.010482	-0.000047	0.0
0.011344	-0.000049	0.0
0.012303	-0.000051	0.0
0.013375	-0.000053	0.0
0.014577	-0.000055	0.0
0.015931	-0.000057	0.0
0.017464	-0.000059	0.0
0.019207	-0.000061	0.0
0.021202	-0.000063	0.0
0.023500	-0.000065	0.0
0.026164	-0.000067	0.0
0.029279	-0.000068	0.0
0.032955	-0.000069	0.0
0.037343	-0.000069	0.0
0.042653	-0.000068	0.0
0.049188	-0.000067	0.0
0.057409	-0.000064	0.0
0.068058	-0.000060	0.0
0.082416	-0.000055	0.0
0.102942	-0.000047	0.0
0.135111	-0.000038	0.0
0.194760	-0.000032	0.0
0.000016	-0.000000	0.0
0.000027	-0.000000	0.0
0.000038	-0.000000	0.0
0.000050	-0.000000	0.0
0.000061	-0.000000	0.0
0.000073	-0.000000	0.0
0.000085	-0.000000	0.0
0.000097	-0.000000	0.0
0.000110	-0.000000	0.0
0.000124	-0.000001	0.0
0.000138	-0.000001	0.0
0.000152	-0.000001	0.0
0.000167	-0.000001	0.0
0.000183	-0.000001	0.0
0.000200	-0.000001	0.0
0.000218	-0.000001	0.0
0.000236	-0.000001	0.0
0.000256	-0.000001	0.0
0.000276	-0.000001	0.0
0.000298	-0.000001	0.0
0.000320	-0.000002	0.0
0.000344	-0.000002	0.0
0.000370	-0.000002	0.0
0.000397	-0.000002	0.0
0.000425	-0.000002	0.0
0.000455	-0.000002	0.0
0.000487	-0.000003	0.0
0.000520	-0.000003	0.0
0.000555	-0.000003	0.0
0.000593	-0.000003	0.0
0.000632	-0.000003	0.0
0.000674	-0.000004	0.0
0.000718	-0.000004	0.0
0.000765	-0.000004	0.0
0.000814	-0.000005	0.0
0.000866	-0.000005	0.0
0.000921	-0.000005	0.0
0.000978	-0.000006	0.0
0.001040	-0.000006	0.0
0.001104	-0.000006	0.0
0.001173	-0.000007	0.0
0.001245	-0.000007	0.0
0.001322	-0.000008	0.0
0.001402	-0.000008	0.0
0.001488	-0.000009	0.0
0.001578	-0.000010	0.0
0.001674	-0.000010	0.0
0.001775	-0.000011	0.0
0.001882	-0.000011	0.0
0.001995	-0.000012	0.0
0.002115	-0.000013	0.0
0.002243	-0.000014	0.0
0.002378	-0.000015	0.0
0.002521	-0.000016	0.0
0.002674	-0.000016	0.0
0.002836	-0.000017	0.0
0.003008	-0.000018	0.0
0.003192	-0.000020	0.0
0.003388	-0.000021	0.0
0.003597	-0.000022	0.0
0.003820	-0.000023	0.0
0.004059	-0.000024	0.0
0.004314	-0.000026	0.0
0.004589	-0.000027	0.0
0.004883	-0.000028	0.0
0.005200	-0.000030	0.0
0.005542	-0.000031	0.0
0.005910	-0.000033	0.0
0.006309	-0.000035	0.0
0.006741	-0.000036	0.0
0.007210	-0.000038	0.0
0.007720	-0.000040	0.0
0.008277	-0.000042	0.0
0.008886	-0.000044	0.0
0.009554	-0.000046	0.0
0.010288	-0.000048	0.0
0.011098	-0.000050	0.0
0.011993	-0.000052	0.0
0.012987	-0.000054	0.0
0.014095	-0.000056	0.0
0.015334	-0.000059	0.0
0.016725	-0.000061	0.0
0.018296	-0.000063	0.0
0.020076	-0.000065	0.0
0.022108	-0.000067	0.0
0.024439	-0.000069	0.0
0.027133	-0.000071	0.0
0.030272	-0.000072	0.0
0.033966	-0.000072	0.0
0.038362	-0.000073	0.0
0.043666	-0.000072	0.0
0.050181	-0.000070	0.0
0.058362	-0.000067	0.0
0.068949	-0.000063	0.0
0.083219	-0.000057	0.0
0.103629	-0.000049	0.0
0.135648	-0.000040	0.0
0.195101	-0.000033	0.0
0.000017	-0.000000	0.0
0.000029	-0.000000	0.0
0.000041	-0.000000	0.0
0.000053	-0.000000	0.0
0.000065	-0.000000	0.0
0.000078	-0.000000	0.0
0.000091	-0.000000	0.0
0.000104	-0.000000	0.0
0.000118	-0.000001	0.0
0.000133	-0.000001	0.0
0.000148	-0.000001	0.0
0.000163	-0.000001	0.0
0.000180	-0.000001	0.0
0.000197	-0.000001	0.0
0.000215	-0.000001	0.0
0.000234	-0.000001	0.0
0.000253	-0.000001	0.0
0.000274	-0.000001	0.0
0.000296	-0.000001	0.0
0.000319	-0.000002	0.0
0.000344	-0.000002	0.0
0.000370	-0.000002	0.0
0.000397	-0.000002	0.0
0.000426	-0.000002	0.0
0.000456	-0.000002	0.0
0.000488	-0.000003	0.0
0.000522	-0.000003	0.0
0.000558	-0.000003	0.0
0.000596	-0.000003	0.0
0.000636	-0.000004	0.0
0.000678	-0.000004	0.0
0.000722	-0.000004	0.0
0.000770	-0.000004	0.0
0.000819	-0.000005	0.0
0.000872	-0.000005	0.0
0.000927	-0.000005	0.0
0.000986	-0.000006	0.0
0.001048	-0.000006	0.0
0.001114	-0.000007	0.0
0.001183	-0.000007	0.0
0.001256	-0.000007	0.0
0.001333	-0.000008	0.0
0.001415	-0.000009	0.0
0.001501	-0.000009	0.0
0.001592	-0.000010	0.0
0.001688	-0.000010	0.0