# vtk DataFile Version 3.0
Header
ASCII
DATASET RECTILINEAR_GRID
DIMENSIONS 98 98 1
X_COORDINATES 98 double
0.030000 0.050000 0.070000 0.090000 0.110000 0.130000 0.150000 0.170000 0.190000 0.210000 0.230000 0.250000 0.270000 0.290000 0.310000 0.330000 0.350000 0.370000 0.390000 0.410000 0.430000 0.450000 0.470000 0.490000 0.510000 0.530000 0.550000 0.570000 0.590000 0.610000 0.630000 0.650000 0.670000 0.690000 0.710000 0.730000 0.750000 0.770000 0.790000 0.810000 0.830000 0.850000 0.870000 0.890000 0.910000 0.930000 0.950000 0.970000 0.990000 1.010000 1.030000 1.050000 1.070000 1.090000 1.110000 1.130000 1.150000 1.170000 1.190000 1.210000 1.230000 1.250000 1.270000 1.290000 1.310000 1.330000 1.350000 1.370000 1.390000 1.410000 1.430000 1.450000 1.470000 1.490000 1.510000 1.530000 1.550000 1.570000 1.590000 1.610000 1.630000 1.650000 1.670000 1.690000 1.710000 1.730000 1.750000 1.770000 1.790000 1.810000 1.830000 1.850000 1.870000 1.890000 1.910000 1.930000 1.950000 1.970000 
Y_COORDINATES 98 double
0.030000 0.050000 0.070000 0.090000 0.110000 0.130000 0.150000 0.170000 0.190000 0.210000 0.230000 0.250000 0.270000 0.290000 0.310000 0.330000 0.350000 0.370000 0.390000 0.410000 0.430000 0.450000 0.470000 0.490000 0.510000 0.530000 0.550000 0.570000 0.590000 0.610000 0.630000 0.650000 0.670000 0.690000 0.710000 0.730000 0.750000 0.770000 0.790000 0.810000 0.830000 0.850000 0.870000 0.890000 0.910000 0.930000 0.950000 0.970000 0.990000 1.010000 1.030000 1.050000 1.070000 1.090000 1.110000 1.130000 1.150000 1.170000 1.190000 1.210000 1.230000 1.250000 1.270000 1.290000 1.310000 1.330000 1.350000 1.370000 1.390000 1.410000 1.430000 1.450000 1.470000 1.490000 1.510000 1.530000 1.550000 1.570000 1.590000 1.610000 1.630000 1.650000 1.670000 1.690000 1.710000 1.730000 1.750000 1.770000 1.790000 1.810000 1.830000 1.850000 1.870000 1.890000 1.910000 1.930000 1.950000 1.970000 
Z_COORDINATES 1 double
0.0
POINT_DATA 9604
VECTORS velocity double
-0.000001	-0.000001	0.0
0.000000	0.000000	0.0
0.000000	0.000000	0.0
0.000000	0.000000	0.0
0.000000	0.000000	0.0
0.000000	-0.000000	0.0
0.000000	-0.000000	0.0
-0.000000	-0.000000	0.0
-0.000000	-0.000000	0.0
-0.000000	-0.000000	0.0
-0.000000	-0.000000	0.0
-0.000000	-0.000000	0.0
-0.000000	-0.000000	0.0
-0.000000	-0.000000	0.0
-0.000000	-0.000000	0.0
-0.000000	-0.000000	0.0
-0.000000	-0.000000	0.0
-0.000000	-0.000000	0.0
-0.000000	-0.000000	0.0
-0.000000	-0.000000	0.0
-0.000000	-0.000000	0.0
-0.000000	-0.000000	0.0
-0.000000	-0.000000	0.0
-0.000000	-0.000000	0.0
-0.000000	-0.000000	0.0
-0.000000	-0.000000	0.0
-0.000000	-0.000000	0.0
-0.000000	-0.000000	0.0
-0.000000	-0.000000	0.0
-0.000000	-0.000000	0.0
-0.000000	-0.000000	0.0
-0.000000	-0.000000	0.0
-0.000000	-0.000000	0.0
-0.000000	-0.000000	0.0
-0.000000	-0.000000	0.0
-0.000000	-0.000000	0.0
-0.000000	-0.000000	0.0
-0.000000	-0.000000	0.0
-0.000000	-0.000000	0.0
-0.000000	-0.000000	0.0
-0.000000	-0.000000	0.0
-0.000000	-0.000000	0.0
-0.000000	-0.000000	0.0
-0.000000	-0.000000	0.0
-0.000000	-0.000000	0.0
-0.000000	-0.000000	0.0
-0.000000	-0.000000	0.0
-0.000000	-0.000000	0.0
-0.000000	-0.000000	0.0
-0.000000	-0.000000	0.0
-0.000000	-0.000000	0.0
-0.000000	-0.000000	0.0
-0.000000	-0.000000	0.0
-0.000000	-0.000000	0.0
-0.000000	-0.000000	0.0
-0.000000	-0.000000	0.0
-0.000000	-0.000000	0.0
-0.000000	-0.000000	0.0
-0.000000	-0.000000	0.0
-0.000000	-0.000000	0.0
-0.000000	-0.000000	0.0
-0.000000	-0.000000	0.0
-0.000000	-0.000000	0.0
-0.000000	-0.000000	0.0
-0.000000	-0.000000	0.0
-0.000000	-0.000000	0.0
-0.000000	-0.000000	0.0
-0.000000	-0.000000	0.0
-0.000000	-0.000000	0.0
-0.000000	-0.000000	0.0
0.000000	-0.000000	0.0
0.000000	-0.000000	0.0
0.000000	-0.000000	0.0
0.000001	-0.000000	0.0
0.000002	-0.000000	0.0
0.000004	-0.000000	0.0
0.000008	-0.000000	0.0
0.000015	-0.000000	0.0
0.000028	-0.000000	0.0
0.000049	-0.000000	0.0
0.000085	-0.000000	0.0
0.000143	-0.000000	0.0
0.000236	-0.000000	0.0
0.000380	-0.000000	0.0
0.000599	0.000000	0.0
0.000924	0.000000	0.0
0.001400	0.000001	0.0
0.002082	0.000001	0.0
0.003050	0.000002	0.0
0.004410	0.000002	0.0
0.006321	0.000003	0.0
0.009025	0.000004	0.0
0.012925	0.000006	0.0
0.018747	0.000007	0.0
0.027919	0.000007	0.0
0.043550	0.000007	0.0
0.073345	0.000006	0.0
0.140682	0.000004	0.0
0.000000	-0.000000	0.0
0.000001	0.000000	0.0
0.000001	0.000000	0.0
0.000001	0.000000	0.0
0.000000	0.000000	0.0
0.000000	-0.000000	0.0
0.000000	-0.000000	0.0
-0.000000	-0.000000	0.0
-0.000000	-0.000000	0.0
-0.000000	-0.000000	0.0
-0.000000	-0.000001	0.0
-0.000000	-0.000001	0.0
-0.000000	-0.000001	0.0
-0.000000	-0.000001	0.0
-0.000000	-0.000001	0.0
-0.000000	-0.000001	0.0
-0.000000	-0.000001	0.0
-0.000000	-0.000001	0.0
-0.000000	-0.000001	0.0
-0.000000	-0.000001	0.0
-0.000000	-0.000001	0.0
-0.000000	-0.000001	0.0
-0.000000	-0.000001	0.0
-0.000000	-0.000001	0.0
-0.000000	-0.000001	0.0
-0.000000	-0.000001	0.0
-0.000000	-0.000001	0.0
-0.000000	-0.000001	0.0
-0.000000	-0.000001	0.0
-0.000000	-0.000001	0.0
-0.000000	-0.000001	0.0
-0.000000	-0.000001	0.0
-0.000000	-0.000001	0.0
-0.000000	-0.000001	0.0
-0.000000	-0.000001	0.0
-0.000000	-0.000001	0.0
-0.000000	-0.000001	0.0
-0.000000	-0.000001	0.0
-0.000000	-0.000001	0.0
-0.000000	-0.000001	0.0
-0.000000	-0.000001	0.0
-0.000000	-0.000001	0.0
-0.000000	-0.000001	0.0
-0.000000	-0.000001	0.0
-0.000000	-0.000001	0.0
-0.000000	-0.000001	0.0
-0.000000	-0.000001	0.0
-0.000000	-0.000001	0.0
-0.000000	-0.000001	0.0
-0.000000	-0.000001	0.0
-0.000000	-0.000001	0.0
-0.000000	-0.000001	0.0
-0.000000	-0.000001	0.0
-0.000000	-0.000001	0.0
-0.000000	-0.000001	0.0
-0.000000	-0.000001	0.0
-0.000000	-0.000001	0.0
-0.000000	-0.000001	0.0
-0.000000	-0.000001	0.0
-0.000000	-0.000001	0.0
-0.000000	-0.000001	0.0
-0.000000	-0.000001	0.0
-0.000000	-0.000001	0.0
-0.000000	-0.000001	0.0
-0.000000	-0.000001	0.0
-0.000000	-0.000001	0.0
-0.000000	-0.000001	0.0
-0.000000	-0.000001	0.0
-0.000000	-0.000001	0.0
-0.000000	-0.000001	0.0
0.000000	-0.000001	0.0
0.000000	-0.000001	0.0
0.000001	-0.000001	0.0
0.000002	-0.000001	0.0
0.000004	-0.000001	0.0
0.000007	-0.000001	0.0
0.000014	-0.000001	0.0
0.000025	-0.000001	0.0
0.000046	-0.000000	0.0
0.000080	-0.000000	0.0
0.000138	-0.000000	0.0
0.000233	-0.000000	0.0
0.000383	-0.000000	0.0
0.000616	-0.000000	0.0
0.000969	0.000000	0.0
0.001493	0.000000	0.0
0.002255	0.000001	0.0
0.003344	0.000002	0.0
0.004878	0.000002	0.0
0.007018	0.000004	0.0
0.009992	0.000005	0.0
0.014137	0.000007	0.0
0.019990	0.000009	0.0
0.028453	0.000011	0.0
0.041168	0.000012	0.0
0.061364	0.000012	0.0
0.096173	0.000010	0.0
0.165228	0.000007	0.0
0.000000	0.000000	0.0
0.000001	0.000001	0.0
0.000001	0.000001	0.0
0.000001	0.000000	0.0
0.000000	0.000000	0.0
0.000000	-0.000000	0.0
0.000000	-0.000000	0.0
-0.000000	-0.000000	0.0
-0.000000	-0.000001	0.0
-0.000000	-0.000001	0.0
-0.000000	-0.000001	0.0
-0.000000	-0.000001	0.0
-0.000000	-0.000001	0.0
-0.000000	-0.000001	0.0
-0.000000	-0.000001	0.0
-0.000000	-0.000001	0.0
-0.000000	-0.000001	0.0
-0.000000	-0.000001	0.0
-0.000000	-0.000001	0.0
-0.000000	-0.000001	0.0
-0.000000	-0.000001	0.0
-0.000000	-0.000001	0.0
-0.000000	-0.000001	0.0
-0.000000	-0.000001	0.0
-0.000000	-0.000001	0.0
-0.000000	-0.000001	0.0
-0.000000	-0.000001	0.0
-0.000000	-0.000001	0.0
-0.000000	-0.000001	0.0
-0.000000	-0.000001	0.0
-0.000000	-0.000001	0.0
-0.000000	-0.000001	0.0
-0.000000	-0.000001	0.0
-0.000000	-0.000001	0.0
-0.000000	-0.000001	0.0
-0.000000	-0.000001	0.0
-0.000000	-0.000001	0.0
-0.000000	-0.000001	0.0
-0.000000	-0.000001	0.0
-0.000000	-0.000001	0.0
-0.000000	-0.000001	0.0
-0.000000	-0.000001	0.0
-0.000000	-0.000001	0.0
-0.000000	-0.000001	0.0
-0.000000	-0.000001	0.0
-0.000000	-0.000001	0.0
-0.000000	-0.000001	0.0
-0.000000	-0.000001	0.0
-0.000000	-0.000001	0.0
-0.000000	-0.000001	0.0
-0.000000	-0.000001	0.0
-0.000000	-0.000001	0.0
-0.000000	-0.000001	0.0
-0.000000	-0.000001	0.0
-0.000000	-0.000001	0.0
-0.000000	-0.000001	0.0
-0.000000	-0.000001	0.0
-0.000000	-0.000001	0.0
-0.000000	-0.000001	0.0
-0.000000	-0.000001	0.0
-0.000000	-0.000001	0.0
-0.000000	-0.000001	0.0
-0.000000	-0.000001	0.0
-0.000000	-0.000001	0.0
-0.000000	-0.000001	0.0
-0.000000	-0.000001	0.0
-0.000000	-0.000001	0.0
-0.000000	-0.000001	0.0
-0.000000	-0.000001	0.0
-0.000000	-0.000001	0.0
0.000000	-0.000001	0.0
0.000000	-0.000001	0.0
0.000001	-0.000001	0.0
0.000002	-0.000001	0.0
0.000005	-0.000001	0.0
0.000010	-0.000001	0.0
0.000018	-0.000001	0.0
0.000034	-0.000001	0.0
0.000062	-0.000001	0.0
0.000109	-0.000001	0.0
0.000187	-0.000000	0.0
0.000314	-0.000000	0.0
0.000516	-0.000000	0.0
0.000828	-0.000000	0.0
0.001299	0.000000	0.0
0.001997	0.000001	0.0
0.003006	0.000001	0.0
0.004441	0.000002	0.0
0.006447	0.000003	0.0
0.009220	0.000005	0.0
0.013025	0.000007	0.0
0.018245	0.000009	0.0
0.025457	0.000012	0.0
0.035589	0.000014	0.0
0.050242	0.000016	0.0
0.072415	0.000016	0.0
0.108516	0.000014	0.0
0.176181	0.000010	0.0
0.000000	0.000000	0.0
0.000001	0.000000	0.0
0.000001	0.000000	0.0
0.000001	0.000000	0.0
0.000000	0.000000	0.0
0.000000	-0.000000	0.0
0.000000	-0.000000	0.0
-0.000000	-0.000000	0.0
-0.000000	-0.000000	0.0
-0.000000	-0.000000	0.0
-0.000000	-0.000001	0.0
-0.000000	-0.000001	0.0
-0.000000	-0.000001	0.0
-0.000000	-0.000001	0.0
-0.000000	-0.000001	0.0
-0.000000	-0.000001	0.0
-0.000000	-0.000001	0.0
-0.000000	-0.000001	0.0
-0.000000	-0.000001	0.0
-0.000000	-0.000001	0.0
-0.000000	-0.000001	0.0
-0.000000	-0.000001	0.0
-0.000000	-0.000001	0.0
-0.000000	-0.000001	0.0
-0.000000	-0.000001	0.0
-0.000000	-0.000001	0.0
-0.000000	-0.000001	0.0
-0.000000	-0.000001	0.0
-0.000000	-0.000001	0.0
-0.000000	-0.000001	0.0
-0.000000	-0.000001	0.0
-0.000000	-0.000001	0.0
-0.000000	-0.000001	0.0
-0.000000	-0.000001	0.0
-0.000000	-0.000001	0.0
-0.000000	-0.000001	0.0
-0.000000	-0.000001	0.0
-0.000000	-0.000001	0.0
-0.000000	-0.000001	0.0
-0.000000	-0.000001	0.0
-0.000000	-0.000001	0.0
-0.000000	-0.000001	0.0
-0.000000	-0.000001	0.0
-0.000000	-0.000001	0.0
-0.000000	-0.000001	0.0
-0.000000	-0.000001	0.0
-0.000000	-0.000001	0.0
-0.000000	-0.000001	0.0
-0.000000	-0.000001	0.0
-0.000000	-0.000001	0.0
-0.000000	-0.000001	0.0
-0.000000	-0.000001	0.0
-0.000000	-0.000001	0.0
-0.000000	-0.000001	0.0
-0.000000	-0.000001	0.0
-0.000000	-0.000001	0.0
-0.000000	-0.000001	0.0
-0.000000	-0.000001	0.0
-0.000000	-0.000001	0.0
-0.000000	-0.000001	0.0
-0.000000	-0.000001	0.0
-0.000000	-0.000001	0.0
-0.000000	-0.000001	0.0
-0.000000	-0.000001	0.0
-0.000000	-0.000001	0.0
-0.000000	-0.000001	0.0
-0.000000	-0.000001	0.0
-0.000000	-0.000001	0.0
-0.000000	-0.000001	0.0
-0.000000	-0.000001	0.0
0.000000	-0.000001	0.0
0.000001	-0.000001	0.0
0.000001	-0.000001	0.0
0.000003	-0.000001	0.0
0.000006	-0.000001	0.0
0.000012	-0.000001	0.0
0.000023	-0.000001	0.0
0.000042	-0.000000	0.0
0.000076	-0.000000	0.0
0.000134	-0.000000	0.0
0.000229	-0.000000	0.0
0.000385	-0.000000	0.0
0.000631	-0.000000	0.0
0.001011	0.000000	0.0
0.001583	0.000001	0.0
0.002425	0.000001	0.0
0.003639	0.000002	0.0
0.005353	0.000003	0.0
0.007732	0.000004	0.0
0.010989	0.000006	0.0
0.015408	0.000009	0.0
0.021380	0.000011	0.0
0.029480	0.000014	0.0
0.040600	0.000017	0.0
0.056245	0.000019	0.0
0.079191	0.000019	0.0
0.115399	0.000017	0.0
0.181627	0.000013	0.0
0.000000	0.000000	0.0
0.000001	0.000000	0.0
0.000001	0.000000	0.0
0.000000	0.000000	0.0
0.000000	0.000000	0.0
0.000000	-0.000000	0.0
0.000000	-0.000000	0.0
-0.000000	-0.000000	0.0
-0.000000	-0.000000	0.0
-0.000000	-0.000000	0.0
-0.000000	-0.000000	0.0
-0.000000	-0.000000	0.0
-0.000000	-0.000000	0.0
-0.000000	-0.000000	0.0
-0.000000	-0.000000	0.0
-0.000000	-0.000000	0.0
-0.000000	-0.000000	0.0
-0.000000	-0.000000	0.0
-0.000000	-0.000000	0.0
-0.000000	-0.000000	0.0
-0.000000	-0.000000	0.0
-0.000000	-0.000000	0.0
-0.000000	-0.000000	0.0
-0.000000	-0.000000	0.0
-0.000000	-0.000000	0.0
-0.000000	-0.000000	0.0
-0.000000	-0.000000	0.0
-0.000000	-0.000000	0.0
-0.000000	-0.000000	0.0
-0.000000	-0.000000	0.0
-0.000000	-0.000000	0.0
-0.000000	-0.000000	0.0
-0.000000	-0.000000	0.0
-0.000000	-0.000000	0.0
-0.000000	-0.000000	0.0
-0.000000	-0.000000	0.0
-0.000000	-0.000000	0.0
-0.000000	-0.000000	0.0
-0.000000	-0.000000	0.0
-0.000000	-0.000000	0.0
-0.000000	-0.000000	0.0
-0.000000	-0.000000	0.0
-0.000000	-0.000000	0.0
-0.000000	-0.000000	0.0
-0.000000	-0.000000	0.0
-0.000000	-0.000000	0.0
-0.000000	-0.000000	0.0
-0.000000	-0.000000	0.0
-0.000000	-0.000000	0.0
-0.000000	-0.000000	0.0
-0.000000	-0.000000	0.0
-0.000000	-0.000000	0.0
-0.000000	-0.000000	0.0
-0.000000	-0.000000	0.0
-0.000000	-0.000000	0.0
-0.000000	-0.000000	0.0
-0.000000	-0.000000	0.0
-0.000000	-0.000000	0.0
-0.000000	-0.000000	0.0
-0.000000	-0.000000	0.0
-0.000000	-0.000000	0.0
-0.000000	-0.000000	0.0
-0.000000	-0.000000	0.0
-0.000000	-0.000000	0.0
-0.000000	-0.000000	0.0
-0.000000	-0.000000	0.0
-0.000000	-0.000000	0.0
-0.000000	-0.000000	0.0
-0.000000	-0.000000	0.0
0.000000	-0.000000	0.0
0.000000	-0.000000	0.0
0.000001	-0.000000	0.0
0.000002	-0.000000	0.0
0.000004	-0.000000	0.0
0.000007	-0.000000	0.0
0.000014	-0.000000	0.0
0.000027	-0.000000	0.0
0.000049	-0.000000	0.0
0.000088	-0.000000	0.0
0.000155	-0.000000	0.0
0.000265	-0.000000	0.0
0.000445	-0.000000	0.0
0.000727	0.000000	0.0
0.001163	0.000000	0.0
0.001816	0.000001	0.0
0.002775	0.000001	0.0
0.004150	0.000002	0.0
0.006080	0.000004	0.0
0.008742	0.000005	0.0
0.012355	0.000007	0.0
0.017206	0.000010	0.0
0.023683	0.000013	0.0
0.032338	0.000016	0.0
0.044022	0.000019	0.0
0.060151	0.000021	0.0
0.083357	0.000022	0.0
0.119363	0.000019	0.0
0.184556	0.000015	0.0
0.000000	0.000000	0.0
0.000000	0.000000	0.0
0.000000	0.000000	0.0
0.000000	0.000000	0.0
0.000000	0.000000	0.0
0.000000	-0.000000	0.0
0.000000	-0.000000	0.0
-0.000000	-0.000000	0.0
-0.000000	-0.000000	0.0
-0.000000	-0.000000	0.0
-0.000000	-0.000000	0.0
-0.000000	-0.000000	0.0
-0.000000	-0.000000	0.0
-0.000000	-0.000000	0.0
-0.000000	-0.000000	0.0
-0.000000	-0.000000	0.0
-0.000000	-0.000000	0.0
-0.000000	-0.000000	0.0
-0.000000	-0.000000	0.0
-0.000000	-0.000000	0.0
-0.000000	-0.000000	0.0
-0.000000	-0.000000	0.0
-0.000000	-0.000000	0.0
-0.000000	-0.000000	0.0
-0.000000	-0.000000	0.0
-0.000000	-0.000000	0.0
-0.000000	-0.000000	0.0
-0.000000	-0.000000	0.0
-0.000000	-0.000000	0.0
-0.000000	-0.000000	0.0
-0.000000	-0.000000	0.0
-0.000000	-0.000000	0.0
-0.000000	-0.000000	0.0
-0.000000	-0.000000	0.0
-0.000000	-0.000000	0.0
-0.000000	-0.000000	0.0
-0.000000	-0.000000	0.0
-0.000000	-0.000000	0.0
-0.000000	-0.000000	0.0
-0.000000	-0.000000	0.0
-0.000000	-0.000000	0.0
-0.000000	-0.000000	0.0
-0.000000	-0.000000	0.0
-0.000000	-0.000000	0.0
-0.000000	-0.000000	0.0
-0.000000	-0.000000	0.0
-0.000000	-0.000000	0.0
-0.000000	-0.000000	0.0
-0.000000	-0.000000	0.0
-0.000000	-0.000000	0.0
-0.000000	-0.000000	0.0
-0.000000	-0.000000	0.0
-0.000000	-0.000000	0.0
-0.000000	-0.000000	0.0
-0.000000	-0.000000	0.0
-0.000000	-0.000000	0.0
-0.000000	-0.000000	0.0
-0.000000	-0.000000	0.0
-0.000000	-0.000000	0.0
-0.000000	-0.000000	0.0
-0.000000	-0.000000	0.0
-0.000000	-0.000000	0.0
-0.000000	-0.000000	0.0
-0.000000	-0.000000	0.0
-0.000000	-0.000000	0.0
-0.000000	-0.000000	0.0
-0.000000	-0.000000	0.0
-0.000000	-0.000000	0.0
0.000000	-0.000000	0.0
0.000000	-0.000000	0.0
0.000000	-0.000000	0.0
0.000001	-0.000000	0.0
0.000002	-0.000000	0.0
0.000004	-0.000000	0.0
0.000008	-0.000000	0.0
0.000016	-0.000000	0.0
0.000030	-0.000000	0.0
0.000055	-0.000000	0.0
0.000098	-0.000000	0.0
0.000172	-0.000000	0.0
0.000295	-0.000000	0.0
0.000493	0.000000	0.0
0.000805	0.000000	0.0
0.001285	0.000001	0.0
0.002002	0.000001	0.0
0.003051	0.000002	0.0
0.004549	0.000003	0.0
0.006641	0.000004	0.0
0.009507	0.000006	0.0
0.013372	0.000008	0.0
0.018518	0.000011	0.0
0.025323	0.000014	0.0
0.034318	0.000018	0.0
0.046314	0.000021	0.0
0.062670	0.000023	0.0
0.085931	0.000024	0.0
0.121705	0.000021	0.0
0.186214	0.000016	0.0
0.000000	0.000000	0.0
0.000000	0.000000	0.0
0.000000	0.000000	0.0
0.000000	0.000000	0.0
0.000000	0.000000	0.0
0.000000	-0.000000	0.0
0.000000	-0.000000	0.0
-0.000000	-0.000000	0.0
-0.000000	-0.000000	0.0
-0.000000	-0.000000	0.0
-0.000000	-0.000000	0.0
-0.000000	-0.000000	0.0
-0.000000	-0.000000	0.0
-0.000000	-0.000000	0.0
-0.000000	-0.000000	0.0
-0.000000	-0.000000	0.0
-0.000000	-0.000000	0.0
-0.000000	-0.000000	0.0
-0.000000	-0.000000	0.0
-0.000000	-0.000000	0.0
-0.000000	-0.000000	0.0
-0.000000	-0.000000	0.0
-0.000000	-0.000000	0.0
-0.000000	-0.000000	0.0
-0.000000	-0.000000	0.0
-0.000000	-0.000000	0.0
-0.000000	-0.000000	0.0
-0.000000	-0.000000	0.0
-0.000000	-0.000000	0.0
-0.000000	-0.000000	0.0
-0.000000	-0.000000	0.0
-0.000000	-0.000000	0.0
-0.000000	-0.000000	0.0
-0.000000	-0.000000	0.0
-0.000000	-0.000000	0.0
-0.000000	-0.000000	0.0
-0.000000	-0.000000	0.0
-0.000000	-0.000000	0.0
-0.000000	-0.000000	0.0
-0.000000	-0.000000	0.0
-0.000000	-0.000000	0.0
-0.000000	-0.000000	0.0
-0.000000	-0.000000	0.0
-0.000000	-0.000000	0.0
-0.000000	-0.000000	0.0
-0.000000	-0.000000	0.0
-0.000000	-0.000000	0.0
-0.000000	-0.000000	0.0
-0.000000	-0.000000	0.0
-0.000000	-0.000000	0.0
-0.000000	-0.000000	0.0
-0.000000	-0.000000	0.0
-0.000000	-0.000000	0.0
-0.000000	-0.000000	0.0
-0.000000	-0.000000	0.0
-0.000000	-0.000000	0.0
-0.000000	-0.000000	0.0
-0.000000	-0.000000	0.0
-0.000000	-0.000000	0.0
-0.000000	-0.000000	0.0
-0.000000	-0.000000	0.0
-0.000000	-0.000000	0.0
-0.000000	-0.000000	0.0
-0.000000	-0.000000	0.0
-0.000000	-0.000000	0.0
-0.000000	-0.000000	0.0
-0.000000	-0.000000	0.0
-0.000000	-0.000000	0.0
0.000000	-0.000000	0.0
0.000000	-0.000000	0.0
0.000000	-0.000000	0.0
0.000001	-0.000000	0.0
0.000002	-0.000000	0.0
0.000004	-0.000000	0.0
0.000009	-0.000000	0.0
0.000017	-0.000000	0.0
0.000032	-0.000000	0.0
0.000059	-0.000000	0.0
0.000106	-0.000000	0.0
0.000186	-0.000000	0.0
0.000318	0.000000	0.0
0.000531	0.000000	0.0
0.000866	0.000000	0.0
0.001379	0.000001	0.0
0.002146	0.000001	0.0
0.003262	0.000002	0.0
0.004850	0.000003	0.0
0.007058	0.000005	0.0
0.010070	0.000006	0.0
0.014107	0.000009	0.0
0.019449	0.000012	0.0
0.026462	0.000015	0.0
0.035660	0.000019	0.0
0.047827	0.000022	0.0
0.064283	0.000025	0.0
0.087527	0.000025	0.0
0.123113	0.000023	0.0
0.187184	0.000017	0.0
0.000000	0.000000	0.0
0.000000	0.000000	0.0
0.000000	0.000000	0.0
0.000000	0.000000	0.0
0.000000	0.000000	0.0
0.000000	-0.000000	0.0
0.000000	-0.000000	0.0
-0.000000	-0.000000	0.0
-0.000000	-0.000000	0.0
-0.000000	-0.000000	0.0
-0.000000	-0.000000	0.0
-0.000000	-0.000000	0.0
-0.000000	-0.000000	0.0
-0.000000	-0.000000	0.0
-0.000000	-0.000000	0.0
-0.000000	-0.000000	0.0
-0.000000	-0.000000	0.0
-0.000000	-0.000000	0.0
-0.000000	-0.000000	0.0
-0.000000	-0.000000	0.0
-0.000000	-0.000000	0.0
-0.000000	-0.000000	0.0
-0.000000	-0.000000	0.0
-0.000000	-0.000000	0.0
-0.000000	-0.000000	0.0
-0.000000	-0.000000	0.0
-0.000000	-0.000000	0.0
-0.000000	-0.000000	0.0
-0.000000	-0.000000	0.0
-0.000000	-0.000000	0.0
-0.000000	-0.000000	0.0
-0.000000	-0.000000	0.0
-0.000000	-0.000000	0.0
-0.000000	-0.000000	0.0
-0.000000	-0.000000	0.0
-0.000000	-0.000000	0.0
-0.000000	-0.000000	0.0
-0.000000	-0.000000	0.0
-0.000000	-0.000000	0.0
-0.000000	-0.000000	0.0
-0.000000	-0.000000	0.0
-0.000000	-0.000000	0.0
-0.000000	-0.000000	0.0
-0.000000	-0.000000	0.0
-0.000000	-0.000000	0.0
-0.000000	-0.000000	0.0
-0.000000	-0.000000	0.0
-0.000000	-0.000000	0.0
-0.000000	-0.000000	0.0
-0.000000	-0.000000	0.0
-0.000000	-0.000000	0.0
-0.000000	-0.000000	0.0
-0.000000	-0.000000	0.0
-0.000000	-0.000000	0.0
-0.000000	-0.000000	0.0
-0.000000	-0.000000	0.0
-0.000000	-0.000000	0.0
-0.000000	-0.000000	0.0
-0.000000	-0.000000	0.0
-0.000000	-0.000000	0.0
-0.000000	-0.000000	0.0
-0.000000	-0.000000	0.0
-0.000000	-0.000000	0.0
-0.000000	-0.000000	0.0
-0.000000	-0.000000	0.0
-0.000000	-0.000000	0.0
-0.000000	-0.000000	0.0
0.000000	-0.000000	0.0
0.000000	-0.000000	0.0
0.000000	-0.000000	0.0
0.000001	-0.000000	0.0
0.000001	-0.000000	0.0
0.000002	-0.000000	0.0
0.000005	-0.000000	0.0
0.000009	-0.000000	0.0
0.000018	-0.000000	0.0
0.000034	-0.000000	0.0
0.000063	-0.000000	0.0
0.000112	-0.000000	0.0
0.000197	0.000000	0.0
0.000336	0.000000	0.0
0.000560	0.000000	0.0
0.000912	0.000001	0.0
0.001451	0.000001	0.0
0.002252	0.000001	0.0
0.003417	0.000002	0.0
0.005070	0.000003	0.0
0.007360	0.000005	0.0
0.010472	0.000007	0.0
0.014625	0.000009	0.0
0.020094	0.000012	0.0
0.027236	0.000016	0.0
0.036553	0.000020	0.0
0.048811	0.000023	0.0
0.065309	0.000026	0.0
0.088519	0.000026	0.0
0.123967	0.000023	0.0
0.187763	0.000018	0.0
0.000000	0.000000	0.0
0.000000	0.000000	0.0
0.000000	0.000000	0.0
0.000000	0.000000	0.0
0.000000	0.000000	0.0
0.000000	-0.000000	0.0
0.000000	-0.000000	0.0
-0.000000	-0.000000	0.0
-0.000000	-0.000000	0.0
-0.000000	-0.000000	0.0
-0.000000	-0.000000	0.0
-0.000000	-0.000000	0.0
-0.000000	-0.000000	0.0
-0.000000	-0.000000	0.0
-0.000000	-0.000000	0.0
-0.000000	-0.000000	0.0
-0.000000	-0.000000	0.0
-0.000000	-0.000000	0.0
-0.000000	-0.000000	0.0
-0.000000	-0.000000	0.0
-0.000000	-0.000000	0.0
-0.000000	-0.000000	0.0
-0.000000	-0.000000	0.0
-0.000000	-0.000000	0.0
-0.000000	-0.000000	0.0
-0.000000	-0.000000	0.0
-0.000000	-0.000000	0.0
-0.000000	-0.000000	0.0
-0.000000	-0.000000	0.0
-0.000000	-0.000000	0.0
-0.000000	-0.000000	0.0
-0.000000	-0.000000	0.0
-0.000000	-0.000000	0.0
-0.000000	-0.000000	0.0
-0.000000	-0.000000	0.0
-0.000000	-0.000000	0.0
-0.000000	-0.000000	0.0
-0.000000	-0.000000	0.0
-0.000000	-0.000000	0.0
-0.000000	-0.000000	0.0
-0.000000	-0.000000	0.0
-0.000000	-0.000000	0.0
-0.000000	-0.000000	0.0
-0.000000	-0.000000	0.0
-0.000000	-0.000000	0.0
-0.000000	-0.000000	0.0
-0.000000	-0.000000	0.0
-0.000000	-0.000000	0.0
-0.000000	-0.000000	0.0
-0.000000	-0.000000	0.0
-0.000000	-0.000000	0.0
-0.000000	-0.000000	0.0
-0.000000	-0.000000	0.0
-0.000000	-0.000000	0.0
-0.000000	-0.000000	0.0
-0.000000	-0.000000	0.0
-0.000000	-0.000000	0.0
-0.000000	-0.000000	0.0
-0.000000	-0.000000	0.0
-0.000000	-0.000000	0.0
-0.000000	-0.000000	0.0
-0.000000	-0.000000	0.0
-0.000000	-0.000000	0.0
-0.000000	-0.000000	0.0
-0.000000	-0.000000	0.0
-0.000000	-0.000000	0.0
0.000000	-0.000000	0.0
0.000000	-0.000000	0.0
0.000000	-0.000000	0.0
0.000000	-0.000000	0.0
0.000001	-0.000000	0.0
0.000001	-0.000000	0.0
0.000002	-0.000000	0.0
0.000005	-0.000000	0.0
0.000010	-0.000000	0.0
0.000019	-0.000000	0.0
0.000036	-0.000000	0.0
0.000065	0.000000	0.0
0.000117	0.000000	0.0
0.000205	0.000000	0.0
0.000349	0.000000	0.0
0.000582	0.000000	0.0
0.000946	0.000001	0.0
0.001502	0.000001	0.0
0.002330	0.000002	0.0
0.003529	0.000002	0.0
0.005226	0.000004	0.0
0.007573	0.000005	0.0
0.010751	0.000007	0.0
0.014980	0.000010	0.0
0.020529	0.000013	0.0
0.027751	0.000016	0.0
0.037137	0.000020	0.0
0.049444	0.000024	0.0
0.065956	0.000026	0.0
0.089132	0.000027	0.0
0.124487	0.000024	0.0
0.188110	0.000018	0.0
0.000000	0.000000	0.0
0.000000	0.000000	0.0
0.000000	0.000000	0.0
0.000000	0.000000	0.0
0.000000	0.000000	0.0
0.000000	-0.000000	0.0
0.000000	-0.000000	0.0
-0.000000	-0.000000	0.0
-0.000000	-0.000000	0.0
-0.000000	-0.000000	0.0
-0.000000	-0.000000	0.0
-0.000000	-0.000000	0.0
-0.000000	-0.000000	0.0
-0.000000	-0.000000	0.0
-0.000000	-0.000000	0.0
-0.000000	-0.000000	0.0
-0.000000	-0.000000	0.0
-0.000000	-0.000000	0.0
-0.000000	-0.000000	0.0
-0.000000	-0.000000	0.0
-0.000000	-0.000000	0.0
-0.000000	-0.000000	0.0
-0.000000	-0.000000	0.0
-0.000000	-0.000000	0.0
-0.000000	-0.000000	0.0
-0.000000	-0.000000	0.0
-0.000000	-0.000000	0.0
-0.000000	-0.000000	0.0
-0.000000	-0.000000	0.0
-0.000000	-0.000000	0.0
-0.000000	-0.000000	0.0
-0.000000	-0.000000	0.0
-0.000000	-0.000000	0.0
-0.000000	-0.000000	0.0
-0.000000	-0.000000	0.0
-0.000000	-0.000000	0.0
-0.000000	-0.000000	0.0
-0.000000	-0.000000	0.0
-0.000000	-0.000000	0.0
-0.000000	-0.000000	0.0
-0.000000	-0.000000	0.0
-0.000000	-0.000000	0.0
-0.000000	-0.000000	0.0
-0.000000	-0.000000	0.0
-0.000000	-0.000000	0.0
-0.000000	-0.000000	0.0
-0.000000	-0.000000	0.0
-0.000000	-0.000000	0.0
-0.000000	-0.000000	0.0
-0.000000	-0.000000	0.0
-0.000000	-0.000000	0.0
-0.000000	-0.000000	0.0
-0.000000	-0.000000	0.0
-0.000000	-0.000000	0.0
-0.000000	-0.000000	0.0
-0.000000	-0.000000	0.0
-0.000000	-0.000000	0.0
-0.000000	-0.000000	0.0
-0.000000	-0.000000	0.0
-0.000000	-0.000000	0.0
-0.000000	-0.000000	0.0
-0.000000	-0.000000	0.0
-0.000000	-0.000000	0.0
-0.000000	-0.000000	0.0
-0.000000	-0.000000	0.0
0.000000	-0.000000	0.0
0.000000	-0.000000	0.0
0.000000	-0.000000	0.0
0.000000	-0.000000	0.0
0.000000	-0.000000	0.0
0.000001	-0.000000	0.0
0.000001	-0.000000	0.0
0.000003	-0.000000	0.0
0.000005	-0.000000	0.0
0.000010	-0.000000	0.0
0.000020	-0.000000	0.0
0.000037	0.000000	0.0
0.000067	0.000000	0.0
0.000120	0.000000	0.0
0.000210	0.000000	0.0
0.000359	0.000000	0.0
0.000597	0.000000	0.0
0.000970	0.000001	0.0
0.001539	0.000001	0.0
0.002384	0.000002	0.0
0.003607	0.000002	0.0
0.005334	0.000004	0.0
0.007718	0.000005	0.0
0.010940	0.000007	0.0
0.015218	0.000010	0.0
0.020817	0.000013	0.0
0.028087	0.000017	0.0
0.037513	0.000021	0.0
0.049845	0.000024	0.0
0.066359	0.000027	0.0
0.089510	0.000027	0.0
0.124803	0.000024	0.0
0.188320	0.000019	0.0
0.000000	0.000000	0.0
0.000000	0.000000	0.0
0.000000	0.000000	0.0
0.000000	0.000000	0.0
0.000000	0.000000	0.0
0.000000	-0.000000	0.0
0.000000	-0.000000	0.0
-0.000000	-0.000000	0.0
-0.000000	-0.000000	0.0
-0.000000	-0.000000	0.0
-0.000000	-0.000000	0.0
-0.000000	-0.000000	0.0
-0.000000	-0.000000	0.0
-0.000000	-0.000000	0.0
-0.000000	-0.000000	0.0
-0.000000	-0.000000	0.0
-0.000000	-0.000000	0.0
-0.000000	-0.000000	0.0
-0.000000	-0.000000	0.0
-0.000000	-0.000000	0.0
-0.000000	-0.000000	0.0
-0.000000	-0.000000	0.0
-0.000000	-0.000000	0.0
-0.000000	-0.000000	0.0
-0.000000	-0.000000	0.0
-0.000000	-0.000000	0.0
-0.000000	-0.000000	0.0
-0.000000	-0.000000	0.0
-0.000000	-0.000000	0.0
-0.000000	-0.000000	0.0
-0.000000	-0.000000	0.0
-0.000000	-0.000000	0.0
-0.000000	-0.000000	0.0
-0.000000	-0.000000	0.0
-0.000000	-0.000000	0.0
-0.000000	-0.000000	0.0
-0.000000	-0.000000	0.0
-0.000000	-0.000000	0.0
-0.000000	-0.000000	0.0
-0.000000	-0.000000	0.0
-0.000000	-0.000000	0.0
-0.000000	-0.000000	0.0
-0.000000	-0.000000	0.0
-0.000000	-0.000000	0.0
-0.000000	-0.000000	0.0
-0.000000	-0.000000	0.0
-0.000000	-0.000000	0.0
-0.000000	-0.000000	0.0
-0.000000	-0.000000	0.0
-0.000000	-0.000000	0.0
-0.000000	-0.000000	0.0
-0.000000	-0.000000	0.0
-0.000000	-0.000000	0.0
-0.000000	-0.000000	0.0
-0.000000	-0.000000	0.0
-0.000000	-0.000000	0.0
-0.000000	-0.000000	0.0
-0.000000	-0.000000	0.0
-0.000000	-0.000000	0.0
-0.000000	-0.000000	0.0
-0.000000	-0.000000	0.0
-0.000000	-0.000000	0.0
-0.000000	-0.000000	0.0
-0.000000	-0.000000	0.0
0.000000	-0.000000	0.0
0.000000	-0.000000	0.0
0.000000	-0.000000	0.0
0.000000	-0.000000	0.0
0.000000	-0.000000	0.0
0.000000	-0.000000	0.0
0.000001	-0.000000	0.0
0.000001	-0.000000	0.0
0.000003	-0.000000	0.0
0.000005	-0.000000	0.0
0.000010	-0.000000	0.0
0.000020	0.000000	0.0
0.000037	0.000000	0.0
0.000069	0.000000	0.0
0.000123	0.000000	0.0
0.000214	0.000000	0.0
0.000365	0.000000	0.0
0.000608	0.000000	0.0
0.000987	0.000001	0.0
0.001564	0.000001	0.0
0.002421	0.000002	0.0
0.003660	0.000003	0.0
0.005407	0.000004	0.0
0.007816	0.000005	0.0
0.011066	0.000007	0.0
0.015373	0.000010	0.0
0.021004	0.000013	0.0
0.028302	0.000017	0.0
0.037751	0.000021	0.0
0.050095	0.000024	0.0
0.066609	0.000027	0.0
0.089740	0.000027	0.0
0.124994	0.000025	0.0
0.188445	0.000019	0.0
0.000000	0.000000	0.0
0.000000	0.000000	0.0
0.000000	0.000000	0.0
0.000000	0.000000	0.0
0.000000	0.000000	0.0
0.000000	-0.000000	0.0
0.000000	-0.000000	0.0
-0.000000	-0.000000	0.0
-0.000000	-0.000000	0.0
-0.000000	-0.000000	0.0
-0.000000	-0.000000	0.0
-0.000000	-0.000000	0.0
-0.000000	-0.000000	0.0
-0.000000	-0.000000	0.0
-0.000000	-0.000000	0.0
-0.000000	-0.000000	0.0
-0.000000	-0.000000	0.0
-0.000000	-0.000000	0.0
-0.000000	-0.000000	0.0
-0.000000	-0.000000	0.0
-0.000000	-0.000000	0.0
-0.000000	-0.000000	0.0
-0.000000	-0.000000	0.0
-0.000000	-0.000000	0.0
-0.000000	-0.000000	0.0
-0.000000	-0.000000	0.0
-0.000000	-0.000000	0.0
-0.000000	-0.000000	0.0
-0.000000	-0.000000	0.0
-0.000000	-0.000000	0.0
-0.000000	-0.000000	0.0
-0.000000	-0.000000	0.0
-0.000000	-0.000000	0.0
-0.000000	-0.000000	0.0
-0.000000	-0.000000	0.0
-0.000000	-0.000000	0.0
-0.000000	-0.000000	0.0
-0.000000	-0.000000	0.0
-0.000000	-0.000000	0.0
-0.000000	-0.000000	0.0
-0.000000	-0.000000	0.0
-0.000000	-0.000000	0.0
-0.000000	-0.000000	0.0
-0.000000	-0.000000	0.0
-0.000000	-0.000000	0.0
-0.000000	-0.000000	0.0
-0.000000	-0.000000	0.0
-0.000000	-0.000000	0.0
-0.000000	-0.000000	0.0
-0.000000	-0.000000	0.0
-0.000000	-0.000000	0.0
-0.000000	-0.000000	0.0
-0.000000	-0.000000	0.0
-0.000000	-0.000000	0.0
-0.000000	-0.000000	0.0
-0.000000	-0.000000	0.0
-0.000000	-0.000000	0.0
-0.000000	-0.000000	0.0
-0.000000	-0.000000	0.0
-0.000000	-0.000000	0.0
-0.000000	-0.000000	0.0
-0.000000	-0.000000	0.0
-0.000000	-0.000000	0.0
0.000000	-0.000000	0.0
0.000000	-0.000000	0.0
0.000000	-0.000000	0.0
0.000000	-0.000000	0.0
0.000000	-0.000000	0.0
0.000000	-0.000000	0.0
0.000000	-0.000000	0.0
0.000001	-0.000000	0.0
0.000001	-0.000000	0.0
0.000003	-0.000000	0.0
0.000005	-0.000000	0.0
0.000011	0.000000	0.0
0.000020	0.000000	0.0
0.000038	0.000000	0.0
0.000070	0.000000	0.0
0.000124	0.000000	0.0
0.000217	0.000000	0.0
0.000370	0.000000	0.0
0.000615	0.000000	0.0
0.000998	0.000001	0.0
0.001581	0.000001	0.0
0.002446	0.000002	0.0
0.003695	0.000003	0.0
0.005455	0.000004	0.0
0.007879	0.000005	0.0
0.011146	0.000007	0.0
0.015473	0.000010	0.0
0.021122	0.000013	0.0
0.028437	0.000017	0.0
0.037898	0.000021	0.0
0.050249	0.000025	0.0
0.066760	0.000027	0.0
0.089880	0.000027	0.0
0.125109	0.000025	0.0
0.188520	0.000019	0.0
0.000000	0.000000	0.0
0.000000	0.000000	0.0
0.000000	0.000000	0.0
0.000000	0.000000	0.0
0.000000	-0.000000	0.0
0.000000	-0.000000	0.0
0.000000	-0.000000	0.0
-0.000000	-0.000000	0.0
-0.000000	-0.000000	0.0
-0.000000	-0.000000	0.0
-0.000000	-0.000000	0.0
-0.000000	-0.000000	0.0
-0.000000	-0.000000	0.0
-0.000000	-0.000000	0.0
-0.000000	-0.000000	0.0
-0.000000	-0.000000	0.0
-0.000000	-0.000000	0.0
-0.000000	-0.000000	0.0
-0.000000	-0.000000	0.0
-0.000000	-0.000000	0.0
-0.000000	-0.000000	0.0
-0.000000	-0.000000	0.0