# vtk DataFile Version 3.0
Header
ASCII
DATASET RECTILINEAR_GRID
DIMENSIONS 98 98 1
X_COORDINATES 98 double
0.030000 0.050000 0.070000 0.090000 0.110000 0.130000 0.150000 0.170000 0.190000 0.210000 0.230000 0.250000 0.270000 0.290000 0.310000 0.330000 0.350000 0.370000 0.390000 0.410000 0.430000 0.450000 0.470000 0.490000 0.510000 0.530000 0.550000 0.570000 0.590000 0.610000 0.630000 0.650000 0.670000 0.690000 0.710000 0.730000 0.750000 0.770000 0.790000 0.810000 0.830000 0.850000 0.870000 0.890000 0.910000 0.930000 0.950000 0.970000 0.990000 1.010000 1.030000 1.050000 1.070000 1.090000 1.110000 1.130000 1.150000 1.170000 1.190000 1.210000 1.230000 1.250000 1.270000 1.290000 1.310000 1.330000 1.350000 1.370000 1.390000 1.410000 1.430000 1.450000 1.470000 1.490000 1.510000 1.530000 1.550000 1.570000 1.590000 1.610000 1.630000 1.650000 1.670000 1.690000 1.710000 1.730000 1.750000 1.770000 1.790000 1.810000 1.830000 1.850000 1.870000 1.890000 1.910000 1.930000 1.950000 1.970000 
Y_COORDINATES 98 double
0.030000 0.050000 0.070000 0.090000 0.110000 0.130000 0.150000 0.170000 0.190000 0.210000 0.230000 0.250000 0.270000 0.290000 0.310000 0.330000 0.350000 0.370000 0.390000 0.410000 0.430000 0.450000 0.470000 0.490000 0.510000 0.530000 0.550000 0.570000 0.590000 0.610000 0.630000 0.650000 0.670000 0.690000 0.710000 0.730000 0.750000 0.770000 0.790000 0.810000 0.830000 0.850000 0.870000 0.890000 0.910000 0.930000 0.950000 0.970000 0.990000 1.010000 1.030000 1.050000 1.070000 1.090000 1.110000 1.130000 1.150000 1.170000 1.190000 1.210000 1.230000 1.250000 1.270000 1.290000 1.310000 1.330000 1.350000 1.370000 1.390000 1.410000 1.430000 1.450000 1.470000 1.490000 1.510000 1.530000 1.550000 1.570000 1.590000 1.610000 1.630000 1.650000 1.670000 1.690000 1.710000 1.730000 1.750000 1.770000 1.790000 1.810000 1.830000 1.850000 1.870000 1.890000 1.910000 1.930000 1.950000 1.970000 
Z_COORDINATES 1 double
0.0
POINT_DATA 9604
VECTORS velocity double
-0.000002	-0.000003	0.0
0.000002	-0.000000	0.0
0.000004	0.000000	0.0
0.000005	0.000000	0.0
0.000007	0.000000	0.0
0.000008	0.000000	0.0
0.000009	0.000000	0.0
0.000010	0.000000	0.0
0.000012	0.000000	0.0
0.000013	0.000000	0.0
0.000015	0.000000	0.0
0.000016	0.000000	0.0
0.000018	0.000000	0.0
0.000020	0.000000	0.0
0.000021	0.000000	0.0
0.000023	0.000000	0.0
0.000025	0.000000	0.0
0.000028	0.000000	0.0
0.000030	0.000000	0.0
0.000033	0.000000	0.0
0.000035	0.000000	0.0
0.000038	0.000000	0.0
0.000041	0.000000	0.0
0.000044	0.000000	0.0
0.000047	0.000000	0.0
0.000051	0.000000	0.0
0.000055	0.000000	0.0
0.000059	0.000000	0.0
0.000063	0.000000	0.0
0.000067	0.000000	0.0
0.000072	0.000000	0.0
0.000077	0.000000	0.0
0.000083	0.000000	0.0
0.000088	0.000000	0.0
0.000094	0.000000	0.0
0.000101	-0.000000	0.0
0.000108	-0.000000	0.0
0.000115	-0.000000	0.0
0.000123	-0.000000	0.0
0.000131	-0.000000	0.0
0.000140	-0.000000	0.0
0.000149	-0.000000	0.0
0.000158	-0.000000	0.0
0.000169	-0.000000	0.0
0.000180	-0.000000	0.0
0.000191	-0.000000	0.0
0.000204	-0.000000	0.0
0.000217	-0.000000	0.0
0.000231	-0.000000	0.0
0.000246	-0.000001	0.0
0.000262	-0.000001	0.0
0.000279	-0.000001	0.0
0.000297	-0.000001	0.0
0.000316	-0.000001	0.0
0.000336	-0.000001	0.0
0.000358	-0.000001	0.0
0.000382	-0.000001	0.0
0.000407	-0.000001	0.0
0.000434	-0.000001	0.0
0.000463	-0.000001	0.0
0.000494	-0.000001	0.0
0.000527	-0.000002	0.0
0.000564	-0.000002	0.0
0.000603	-0.000002	0.0
0.000645	-0.000002	0.0
0.000691	-0.000002	0.0
0.000741	-0.000002	0.0
0.000796	-0.000002	0.0
0.000856	-0.000003	0.0
0.000921	-0.000003	0.0
0.000993	-0.000003	0.0
0.001073	-0.000003	0.0
0.001161	-0.000003	0.0
0.001259	-0.000003	0.0
0.001368	-0.000003	0.0
0.001491	-0.000004	0.0
0.001630	-0.000004	0.0
0.001787	-0.000004	0.0
0.001965	-0.000004	0.0
0.002170	-0.000004	0.0
0.002407	-0.000004	0.0
0.002683	-0.000004	0.0
0.003006	-0.000004	0.0
0.003389	-0.000003	0.0
0.003848	-0.000003	0.0
0.004403	-0.000003	0.0
0.005086	-0.000002	0.0
0.005937	-0.000001	0.0
0.007018	-0.000000	0.0
0.008420	0.000001	0.0
0.010287	0.000002	0.0
0.012850	0.000003	0.0
0.016506	0.000004	0.0
0.021980	0.000004	0.0
0.030705	0.000004	0.0
0.045803	0.000003	0.0
0.074993	0.000000	0.0
0.141653	-0.000003	0.0
0.000002	-0.000001	0.0
0.000004	-0.000000	0.0
0.000007	0.000000	0.0
0.000009	0.000000	0.0
0.000011	0.000000	0.0
0.000013	0.000000	0.0
0.000015	0.000000	0.0
0.000017	-0.000000	0.0
0.000019	-0.000000	0.0
0.000022	-0.000000	0.0
0.000024	-0.000000	0.0
0.000027	-0.000000	0.0
0.000030	-0.000000	0.0
0.000032	-0.000000	0.0
0.000036	-0.000000	0.0
0.000039	-0.000000	0.0
0.000042	-0.000000	0.0
0.000046	-0.000000	0.0
0.000050	-0.000000	0.0
0.000054	-0.000000	0.0
0.000058	-0.000000	0.0
0.000063	-0.000000	0.0
0.000068	-0.000000	0.0
0.000073	-0.000000	0.0
0.000079	-0.000000	0.0
0.000085	-0.000000	0.0
0.000091	-0.000000	0.0
0.000098	-0.000000	0.0
0.000105	-0.000000	0.0
0.000112	-0.000000	0.0
0.000120	-0.000001	0.0
0.000128	-0.000001	0.0
0.000137	-0.000001	0.0
0.000147	-0.000001	0.0
0.000157	-0.000001	0.0
0.000168	-0.000001	0.0
0.000179	-0.000001	0.0
0.000191	-0.000001	0.0
0.000204	-0.000001	0.0
0.000218	-0.000001	0.0
0.000232	-0.000001	0.0
0.000247	-0.000001	0.0
0.000263	-0.000001	0.0
0.000281	-0.000001	0.0
0.000299	-0.000001	0.0
0.000318	-0.000001	0.0
0.000339	-0.000001	0.0
0.000361	-0.000001	0.0
0.000384	-0.000001	0.0
0.000409	-0.000001	0.0
0.000435	-0.000002	0.0
0.000463	-0.000002	0.0
0.000493	-0.000002	0.0
0.000525	-0.000002	0.0
0.000559	-0.000002	0.0
0.000596	-0.000002	0.0
0.000635	-0.000002	0.0
0.000676	-0.000002	0.0
0.000721	-0.000003	0.0
0.000769	-0.000003	0.0
0.000821	-0.000003	0.0
0.000876	-0.000003	0.0
0.000936	-0.000003	0.0
0.001001	-0.000004	0.0
0.001071	-0.000004	0.0
0.001148	-0.000004	0.0
0.001231	-0.000004	0.0
0.001321	-0.000005	0.0
0.001420	-0.000005	0.0
0.001528	-0.000005	0.0
0.001647	-0.000005	0.0
0.001779	-0.000006	0.0
0.001925	-0.000006	0.0
0.002086	-0.000006	0.0
0.002267	-0.000006	0.0
0.002469	-0.000007	0.0
0.002697	-0.000007	0.0
0.002955	-0.000007	0.0
0.003249	-0.000007	0.0
0.003585	-0.000007	0.0
0.003972	-0.000007	0.0
0.004423	-0.000007	0.0
0.004950	-0.000007	0.0
0.005572	-0.000006	0.0
0.006316	-0.000006	0.0
0.007212	-0.000005	0.0
0.008309	-0.000004	0.0
0.009668	-0.000003	0.0
0.011383	-0.000002	0.0
0.013586	0.000000	0.0
0.016484	0.000002	0.0
0.020396	0.000003	0.0
0.025848	0.000005	0.0
0.033747	0.000005	0.0
0.045743	0.000005	0.0
0.065087	0.000004	0.0
0.098930	0.000001	0.0
0.166886	-0.000004	0.0
0.000004	-0.000000	0.0
0.000007	-0.000000	0.0
0.000010	0.000000	0.0
0.000012	0.000000	0.0
0.000015	0.000000	0.0
0.000018	-0.000000	0.0
0.000021	-0.000000	0.0
0.000024	-0.000000	0.0
0.000027	-0.000000	0.0
0.000030	-0.000000	0.0
0.000034	-0.000000	0.0
0.000037	-0.000000	0.0
0.000041	-0.000000	0.0
0.000045	-0.000000	0.0
0.000050	-0.000000	0.0
0.000054	-0.000000	0.0
0.000059	-0.000000	0.0
0.000064	-0.000001	0.0
0.000070	-0.000001	0.0
0.000075	-0.000001	0.0
0.000081	-0.000001	0.0
0.000088	-0.000001	0.0
0.000095	-0.000001	0.0
0.000102	-0.000001	0.0
0.000110	-0.000001	0.0
0.000118	-0.000001	0.0
0.000127	-0.000001	0.0
0.000136	-0.000001	0.0
0.000146	-0.000001	0.0
0.000157	-0.000001	0.0
0.000168	-0.000001	0.0
0.000180	-0.000001	0.0
0.000192	-0.000001	0.0
0.000205	-0.000001	0.0
0.000219	-0.000001	0.0
0.000234	-0.000001	0.0
0.000250	-0.000001	0.0
0.000267	-0.000001	0.0
0.000285	-0.000001	0.0
0.000304	-0.000001	0.0
0.000324	-0.000001	0.0
0.000345	-0.000001	0.0
0.000368	-0.000001	0.0
0.000392	-0.000002	0.0
0.000417	-0.000002	0.0
0.000445	-0.000002	0.0
0.000473	-0.000002	0.0
0.000504	-0.000002	0.0
0.000536	-0.000002	0.0
0.000571	-0.000002	0.0
0.000608	-0.000002	0.0
0.000647	-0.000002	0.0
0.000688	-0.000003	0.0
0.000733	-0.000003	0.0
0.000780	-0.000003	0.0
0.000831	-0.000003	0.0
0.000885	-0.000003	0.0
0.000943	-0.000004	0.0
0.001006	-0.000004	0.0
0.001072	-0.000004	0.0
0.001144	-0.000004	0.0
0.001221	-0.000005	0.0
0.001305	-0.000005	0.0
0.001395	-0.000005	0.0
0.001493	-0.000005	0.0
0.001598	-0.000006	0.0
0.001713	-0.000006	0.0
0.001839	-0.000006	0.0
0.001976	-0.000007	0.0
0.002126	-0.000007	0.0
0.002291	-0.000008	0.0
0.002473	-0.000008	0.0
0.002674	-0.000008	0.0
0.002897	-0.000009	0.0
0.003146	-0.000009	0.0
0.003424	-0.000009	0.0
0.003738	-0.000009	0.0
0.004092	-0.000010	0.0
0.004494	-0.000010	0.0
0.004953	-0.000010	0.0
0.005482	-0.000010	0.0
0.006095	-0.000010	0.0
0.006809	-0.000009	0.0
0.007651	-0.000009	0.0
0.008651	-0.000008	0.0
0.009852	-0.000007	0.0
0.011310	-0.000006	0.0
0.013106	-0.000004	0.0
0.015350	-0.000003	0.0
0.018201	-0.000000	0.0
0.021897	0.000002	0.0
0.026796	0.000004	0.0
0.033467	0.000006	0.0
0.042840	0.000007	0.0
0.056532	0.000007	0.0
0.077566	0.000005	0.0
0.112370	0.000002	0.0
0.178531	-0.000003	0.0
0.000005	-0.000000	0.0
0.000009	0.000000	0.0
0.000012	0.000000	0.0
0.000016	0.000000	0.0
0.000019	0.000000	0.0
0.000023	-0.000000	0.0
0.000027	-0.000000	0.0
0.000031	-0.000000	0.0
0.000035	-0.000000	0.0
0.000039	-0.000000	0.0
0.000043	-0.000000	0.0
0.000048	-0.000001	0.0
0.000053	-0.000001	0.0
0.000058	-0.000001	0.0
0.000064	-0.000001	0.0
0.000070	-0.000001	0.0
0.000076	-0.000001	0.0
0.000082	-0.000001	0.0
0.000089	-0.000001	0.0
0.000097	-0.000001	0.0
0.000105	-0.000001	0.0
0.000113	-0.000001	0.0
0.000122	-0.000001	0.0
0.000131	-0.000001	0.0
0.000141	-0.000001	0.0
0.000152	-0.000001	0.0
0.000163	-0.000001	0.0
0.000175	-0.000001	0.0
0.000187	-0.000001	0.0
0.000201	-0.000001	0.0
0.000215	-0.000001	0.0
0.000230	-0.000001	0.0
0.000246	-0.000001	0.0
0.000263	-0.000001	0.0
0.000281	-0.000001	0.0
0.000301	-0.000001	0.0
0.000321	-0.000001	0.0
0.000342	-0.000001	0.0
0.000365	-0.000001	0.0
0.000390	-0.000002	0.0
0.000415	-0.000002	0.0
0.000443	-0.000002	0.0
0.000472	-0.000002	0.0
0.000502	-0.000002	0.0
0.000535	-0.000002	0.0
0.000570	-0.000002	0.0
0.000606	-0.000002	0.0
0.000645	-0.000002	0.0
0.000687	-0.000003	0.0
0.000731	-0.000003	0.0
0.000778	-0.000003	0.0
0.000828	-0.000003	0.0
0.000881	-0.000003	0.0
0.000938	-0.000003	0.0
0.000999	-0.000004	0.0
0.001064	-0.000004	0.0
0.001133	-0.000004	0.0
0.001207	-0.000004	0.0
0.001286	-0.000005	0.0
0.001372	-0.000005	0.0
0.001463	-0.000005	0.0
0.001562	-0.000006	0.0
0.001668	-0.000006	0.0
0.001782	-0.000006	0.0
0.001907	-0.000007	0.0
0.002041	-0.000007	0.0
0.002187	-0.000008	0.0
0.002346	-0.000008	0.0
0.002520	-0.000009	0.0
0.002710	-0.000009	0.0
0.002919	-0.000010	0.0
0.003149	-0.000010	0.0
0.003403	-0.000010	0.0
0.003685	-0.000011	0.0
0.003999	-0.000011	0.0
0.004349	-0.000012	0.0
0.004743	-0.000012	0.0
0.005187	-0.000012	0.0
0.005690	-0.000012	0.0
0.006263	-0.000013	0.0
0.006921	-0.000012	0.0
0.007681	-0.000012	0.0
0.008564	-0.000012	0.0
0.009600	-0.000011	0.0
0.010824	-0.000011	0.0
0.012286	-0.000009	0.0
0.014050	-0.000008	0.0
0.016203	-0.000006	0.0
0.018868	-0.000004	0.0
0.022215	-0.000001	0.0
0.026492	0.000002	0.0
0.032066	0.000005	0.0
0.039499	0.000007	0.0
0.049690	0.000008	0.0
0.064158	0.000008	0.0
0.085709	0.000007	0.0
0.120313	0.000003	0.0
0.184649	-0.000002	0.0
0.000006	0.000000	0.0
0.000011	0.000000	0.0
0.000015	0.000000	0.0
0.000019	0.000000	0.0
0.000023	0.000000	0.0
0.000028	-0.000000	0.0
0.000032	-0.000000	0.0
0.000037	-0.000000	0.0
0.000042	-0.000000	0.0
0.000047	-0.000000	0.0
0.000053	-0.000000	0.0
0.000059	-0.000000	0.0
0.000065	-0.000001	0.0
0.000071	-0.000001	0.0
0.000078	-0.000001	0.0
0.000085	-0.000001	0.0
0.000092	-0.000001	0.0
0.000101	-0.000001	0.0
0.000109	-0.000001	0.0
0.000118	-0.000001	0.0
0.000128	-0.000001	0.0
0.000138	-0.000001	0.0
0.000148	-0.000001	0.0
0.000160	-0.000001	0.0
0.000172	-0.000001	0.0
0.000185	-0.000001	0.0
0.000199	-0.000001	0.0
0.000213	-0.000001	0.0
0.000228	-0.000001	0.0
0.000245	-0.000001	0.0
0.000262	-0.000001	0.0
0.000281	-0.000001	0.0
0.000300	-0.000001	0.0
0.000321	-0.000001	0.0
0.000343	-0.000001	0.0
0.000366	-0.000001	0.0
0.000391	-0.000001	0.0
0.000417	-0.000002	0.0
0.000445	-0.000002	0.0
0.000475	-0.000002	0.0
0.000506	-0.000002	0.0
0.000539	-0.000002	0.0
0.000574	-0.000002	0.0
0.000612	-0.000002	0.0
0.000651	-0.000002	0.0
0.000693	-0.000002	0.0
0.000738	-0.000003	0.0
0.000786	-0.000003	0.0
0.000836	-0.000003	0.0
0.000890	-0.000003	0.0
0.000947	-0.000003	0.0
0.001007	-0.000004	0.0
0.001072	-0.000004	0.0
0.001141	-0.000004	0.0
0.001214	-0.000004	0.0
0.001293	-0.000005	0.0
0.001377	-0.000005	0.0
0.001466	-0.000005	0.0
0.001563	-0.000006	0.0
0.001666	-0.000006	0.0
0.001776	-0.000006	0.0
0.001895	-0.000007	0.0
0.002024	-0.000007	0.0
0.002162	-0.000008	0.0
0.002312	-0.000008	0.0
0.002474	-0.000009	0.0
0.002650	-0.000009	0.0
0.002842	-0.000010	0.0
0.003051	-0.000010	0.0
0.003279	-0.000011	0.0
0.003530	-0.000011	0.0
0.003806	-0.000012	0.0
0.004110	-0.000013	0.0
0.004447	-0.000013	0.0
0.004821	-0.000014	0.0
0.005238	-0.000014	0.0
0.005706	-0.000014	0.0
0.006233	-0.000015	0.0
0.006828	-0.000015	0.0
0.007505	-0.000015	0.0
0.008279	-0.000015	0.0
0.009169	-0.000015	0.0
0.010201	-0.000014	0.0
0.011404	-0.000014	0.0
0.012819	-0.000013	0.0
0.014499	-0.000011	0.0
0.016511	-0.000010	0.0
0.018948	-0.000007	0.0
0.021934	-0.000005	0.0
0.025645	-0.000002	0.0
0.030325	0.000002	0.0
0.036335	0.000005	0.0
0.044214	0.000008	0.0
0.054818	0.000009	0.0
0.069579	0.000010	0.0
0.091155	0.000008	0.0
0.125276	0.000004	0.0
0.188212	-0.000001	0.0
0.000007	0.000000	0.0
0.000012	0.000000	0.0
0.000017	0.000000	0.0
0.000022	0.000000	0.0
0.000028	0.000000	0.0
0.000033	-0.000000	0.0
0.000038	-0.000000	0.0
0.000044	-0.000000	0.0
0.000050	-0.000000	0.0
0.000056	-0.000000	0.0
0.000062	-0.000000	0.0
0.000069	-0.000000	0.0
0.000076	-0.000000	0.0
0.000084	-0.000000	0.0
0.000092	-0.000000	0.0
0.000100	-0.000000	0.0
0.000109	-0.000001	0.0
0.000118	-0.000001	0.0
0.000128	-0.000001	0.0
0.000139	-0.000001	0.0
0.000150	-0.000001	0.0
0.000162	-0.000001	0.0
0.000175	-0.000001	0.0
0.000188	-0.000001	0.0
0.000203	-0.000001	0.0
0.000218	-0.000001	0.0
0.000234	-0.000001	0.0
0.000251	-0.000001	0.0
0.000269	-0.000001	0.0
0.000288	-0.000001	0.0
0.000309	-0.000001	0.0
0.000330	-0.000001	0.0
0.000353	-0.000001	0.0
0.000378	-0.000001	0.0
0.000404	-0.000001	0.0
0.000431	-0.000001	0.0
0.000460	-0.000002	0.0
0.000491	-0.000002	0.0
0.000524	-0.000002	0.0
0.000558	-0.000002	0.0
0.000595	-0.000002	0.0
0.000634	-0.000002	0.0
0.000676	-0.000002	0.0
0.000719	-0.000002	0.0
0.000766	-0.000003	0.0
0.000815	-0.000003	0.0
0.000868	-0.000003	0.0
0.000924	-0.000003	0.0
0.000983	-0.000003	0.0
0.001046	-0.000004	0.0
0.001112	-0.000004	0.0
0.001184	-0.000004	0.0
0.001259	-0.000004	0.0
0.001340	-0.000005	0.0
0.001426	-0.000005	0.0
0.001518	-0.000005	0.0
0.001616	-0.000006	0.0
0.001721	-0.000006	0.0
0.001833	-0.000006	0.0
0.001954	-0.000007	0.0
0.002083	-0.000007	0.0
0.002222	-0.000008	0.0
0.002371	-0.000008	0.0
0.002533	-0.000009	0.0
0.002707	-0.000009	0.0
0.002896	-0.000010	0.0
0.003100	-0.000011	0.0
0.003323	-0.000011	0.0
0.003565	-0.000012	0.0
0.003830	-0.000013	0.0
0.004120	-0.000013	0.0
0.004439	-0.000014	0.0
0.004790	-0.000014	0.0
0.005178	-0.000015	0.0
0.005608	-0.000016	0.0
0.006087	-0.000016	0.0
0.006623	-0.000017	0.0
0.007225	-0.000017	0.0
0.007903	-0.000017	0.0
0.008672	-0.000017	0.0
0.009548	-0.000017	0.0
0.010553	-0.000017	0.0
0.011711	-0.000017	0.0
0.013057	-0.000016	0.0
0.014631	-0.000015	0.0
0.016487	-0.000013	0.0
0.018696	-0.000011	0.0
0.021351	-0.000009	0.0
0.024576	-0.000006	0.0
0.028542	-0.000002	0.0
0.033491	0.000001	0.0
0.039767	0.000005	0.0
0.047889	0.000008	0.0
0.058672	0.000010	0.0
0.073490	0.000010	0.0
0.094910	0.000009	0.0
0.128539	0.000005	0.0
0.190454	-0.000000	0.0
0.000008	0.000000	0.0
0.000014	0.000000	0.0
0.000020	0.000000	0.0
0.000026	0.000000	0.0
0.000032	0.000000	0.0
0.000038	-0.000000	0.0
0.000044	-0.000000	0.0
0.000050	-0.000000	0.0
0.000057	-0.000000	0.0
0.000064	-0.000000	0.0
0.000072	-0.000000	0.0
0.000079	-0.000000	0.0
0.000088	-0.000000	0.0
0.000096	-0.000000	0.0
0.000106	-0.000000	0.0
0.000115	-0.000000	0.0
0.000125	-0.000000	0.0
0.000136	-0.000000	0.0
0.000148	-0.000000	0.0
0.000160	-0.000001	0.0
0.000173	-0.000001	0.0
0.000187	-0.000001	0.0
0.000201	-0.000001	0.0
0.000217	-0.000001	0.0
0.000233	-0.000001	0.0
0.000250	-0.000001	0.0
0.000269	-0.000001	0.0
0.000288	-0.000001	0.0
0.000309	-0.000001	0.0
0.000331	-0.000001	0.0
0.000355	-0.000001	0.0
0.000380	-0.000001	0.0
0.000406	-0.000001	0.0
0.000434	-0.000001	0.0
0.000464	-0.000001	0.0
0.000495	-0.000002	0.0
0.000529	-0.000002	0.0
0.000564	-0.000002	0.0
0.000601	-0.000002	0.0
0.000641	-0.000002	0.0
0.000683	-0.000002	0.0
0.000728	-0.000002	0.0
0.000775	-0.000002	0.0
0.000826	-0.000003	0.0
0.000879	-0.000003	0.0
0.000936	-0.000003	0.0
0.000996	-0.000003	0.0
0.001059	-0.000003	0.0
0.001127	-0.000004	0.0
0.001199	-0.000004	0.0
0.001275	-0.000004	0.0
0.001357	-0.000005	0.0
0.001443	-0.000005	0.0
0.001535	-0.000005	0.0
0.001634	-0.000006	0.0
0.001738	-0.000006	0.0
0.001850	-0.000006	0.0
0.001970	-0.000007	0.0
0.002098	-0.000007	0.0
0.002235	-0.000008	0.0
0.002382	-0.000008	0.0
0.002540	-0.000009	0.0
0.002710	-0.000009	0.0
0.002893	-0.000010	0.0
0.003091	-0.000011	0.0
0.003305	-0.000011	0.0
0.003537	-0.000012	0.0
0.003788	-0.000013	0.0
0.004062	-0.000013	0.0
0.004361	-0.000014	0.0
0.004688	-0.000015	0.0
0.005046	-0.000016	0.0
0.005441	-0.000016	0.0
0.005876	-0.000017	0.0
0.006358	-0.000018	0.0
0.006893	-0.000018	0.0
0.007490	-0.000019	0.0
0.008159	-0.000019	0.0
0.008911	-0.000020	0.0
0.009761	-0.000020	0.0
0.010727	-0.000020	0.0
0.011829	-0.000019	0.0
0.013095	-0.000019	0.0
0.014559	-0.000018	0.0
0.016262	-0.000017	0.0
0.018259	-0.000015	0.0
0.020620	-0.000013	0.0
0.023438	-0.000010	0.0
0.026834	-0.000007	0.0
0.030975	-0.000003	0.0
0.036094	0.000001	0.0
0.042524	0.000004	0.0
0.050763	0.000008	0.0
0.061598	0.000010	0.0
0.076364	0.000011	0.0
0.097576	0.000010	0.0
0.130780	0.000006	0.0
0.191953	0.000000	0.0
0.000010	0.000000	0.0
0.000016	0.000000	0.0
0.000022	0.000000	0.0
0.000029	0.000000	0.0
0.000036	0.000000	0.0
0.000042	-0.000000	0.0
0.000050	-0.000000	0.0
0.000057	-0.000000	0.0
0.000065	-0.000000	0.0
0.000073	-0.000000	0.0
0.000081	-0.000000	0.0
0.000090	-0.000000	0.0
0.000099	-0.000000	0.0
0.000109	-0.000000	0.0
0.000119	-0.000000	0.0
0.000130	-0.000000	0.0
0.000142	-0.000000	0.0
0.000154	-0.000000	0.0
0.000167	-0.000000	0.0
0.000181	-0.000000	0.0
0.000195	-0.000001	0.0
0.000211	-0.000001	0.0
0.000227	-0.000001	0.0
0.000244	-0.000001	0.0
0.000263	-0.000001	0.0
0.000283	-0.000001	0.0
0.000303	-0.000001	0.0
0.000325	-0.000001	0.0
0.000349	-0.000001	0.0
0.000374	-0.000001	0.0
0.000400	-0.000001	0.0
0.000428	-0.000001	0.0
0.000458	-0.000001	0.0
0.000489	-0.000001	0.0
0.000523	-0.000001	0.0
0.000558	-0.000002	0.0
0.000596	-0.000002	0.0
0.000636	-0.000002	0.0
0.000678	-0.000002	0.0
0.000723	-0.000002	0.0
0.000770	-0.000002	0.0
0.000820	-0.000002	0.0
0.000874	-0.000003	0.0
0.000930	-0.000003	0.0
0.000990	-0.000003	0.0
0.001054	-0.000003	0.0
0.001121	-0.000004	0.0
0.001193	-0.000004	0.0
0.001269	-0.000004	0.0
0.001349	-0.000004	0.0
0.001435	-0.000005	0.0
0.001526	-0.000005	0.0
0.001623	-0.000005	0.0
0.001726	-0.000006	0.0
0.001836	-0.000006	0.0
0.001954	-0.000007	0.0
0.002079	-0.000007	0.0
0.002212	-0.000008	0.0
0.002355	-0.000008	0.0
0.002509	-0.000009	0.0
0.002673	-0.000009	0.0
0.002849	-0.000010	0.0
0.003038	-0.000010	0.0
0.003242	-0.000011	0.0
0.003462	-0.000012	0.0
0.003700	-0.000013	0.0
0.003957	-0.000013	0.0
0.004236	-0.000014	0.0
0.004540	-0.000015	0.0
0.004870	-0.000016	0.0
0.005231	-0.000017	0.0
0.005627	-0.000017	0.0
0.006061	-0.000018	0.0
0.006539	-0.000019	0.0
0.007068	-0.000020	0.0
0.007654	-0.000020	0.0
0.008306	-0.000021	0.0
0.009034	-0.000021	0.0
0.009851	-0.000022	0.0
0.010772	-0.000022	0.0
0.011813	-0.000022	0.0
0.012999	-0.000022	0.0
0.014354	-0.000021	0.0
0.015914	-0.000020	0.0
0.017721	-0.000019	0.0
0.019828	-0.000017	0.0
0.022305	-0.000015	0.0
0.025241	-0.000012	0.0
0.028757	-0.000009	0.0
0.033013	-0.000005	0.0
0.038235	-0.000000	0.0
0.044745	0.000004	0.0
0.053026	0.000008	0.0
0.063846	0.000010	0.0
0.078516	0.000011	0.0
0.099523	0.000010	0.0
0.132378	0.000006	0.0
0.193002	0.000001	0.0
0.000011	0.000000	0.0
0.000018	0.000000	0.0
0.000025	0.000000	0.0
0.000032	0.000000	0.0
0.000040	-0.000000	0.0
0.000047	-0.000000	0.0
0.000055	-0.000000	0.0
0.000063	-0.000000	0.0
0.000072	-0.000000	0.0
0.000081	-0.000000	0.0
0.000090	-0.000000	0.0
0.000100	-0.000000	0.0
0.000110	-0.000000	0.0
0.000121	-0.000000	0.0
0.000133	-0.000000	0.0
0.000145	-0.000000	0.0
0.000158	-0.000000	0.0
0.000171	-0.000000	0.0
0.000186	-0.000000	0.0
0.000201	-0.000000	0.0
0.000217	-0.000000	0.0
0.000234	-0.000001	0.0
0.000252	-0.000001	0.0
0.000272	-0.000001	0.0
0.000292	-0.000001	0.0
0.000314	-0.000001	0.0
0.000337	-0.000001	0.0
0.000362	-0.000001	0.0
0.000388	-0.000001	0.0
0.000416	-0.000001	0.0
0.000445	-0.000001	0.0
0.000476	-0.000001	0.0
0.000509	-0.000001	0.0
0.000544	-0.000001	0.0
0.000581	-0.000002	0.0
0.000620	-0.000002	0.0
0.000662	-0.000002	0.0
0.000706	-0.000002	0.0
0.000753	-0.000002	0.0
0.000803	-0.000002	0.0
0.000855	-0.000002	0.0
0.000911	-0.000003	0.0
0.000970	-0.000003	0.0
0.001033	-0.000003	0.0
0.001099	-0.000003	0.0
0.001169	-0.000004	0.0
0.001244	-0.000004	0.0
0.001323	-0.000004	0.0
0.001407	-0.000004	0.0
0.001496	-0.000005	0.0
0.001591	-0.000005	0.0
0.001692	-0.000005	0.0
0.001799	-0.000006	0.0
0.001913	-0.000006	0.0
0.002034	-0.000007	0.0
0.002163	-0.000007	0.0
0.002301	-0.000008	0.0
0.002448	-0.000008	0.0
0.002606	-0.000009	0.0
0.002774	-0.000009	0.0
0.002955	-0.000010	0.0
0.003148	-0.000011	0.0
0.003356	-0.000011	0.0
0.003580	-0.000012	0.0
0.003820	-0.000013	0.0
0.004081	-0.000014	0.0
0.004362	-0.000015	0.0
0.004666	-0.000016	0.0
0.004997	-0.000016	0.0
0.005357	-0.000017	0.0
0.005750	-0.000018	0.0
0.006179	-0.000019	0.0
0.006649	-0.000020	0.0
0.007167	-0.000021	0.0
0.007737	-0.000022	0.0
0.008369	-0.000022	0.0
0.009069	-0.000023	0.0
0.009850	-0.000023	0.0
0.010723	-0.000024	0.0
0.011704	-0.000024	0.0
0.012811	-0.000024	0.0
0.014065	-0.000024	0.0
0.015494	-0.000023	0.0
0.017132	-0.000022	0.0
0.019020	-0.000021	0.0
0.021212	-0.000019	0.0
0.023774	-0.000017	0.0
0.026795	-0.000014	0.0
0.030392	-0.000010	0.0
0.034720	-0.000006	0.0
0.039999	-0.000002	0.0
0.046542	0.000003	0.0
0.054824	0.000007	0.0
0.065597	0.000010	0.0
0.080158	0.000011	0.0
0.100979	0.000010	0.0
0.133553	0.000006	0.0
0.193764	0.000001	0.0
0.000012	0.000000	0.0
0.000019	0.000000	0.0
0.000027	0.000000	0.0
0.000035	-0.000000	0.0
0.000043	-0.000000	0.0
0.000052	-0.000000	0.0
0.000061	-0.000000	0.0
0.000070	-0.000000	0.0
0.000079	-0.000000	0.0
0.000089	-0.000000	0.0
0.000099	-0.000000	0.0
0.000110	-0.000000	0.0
0.000121	-0.000000	0.0
0.000133	-0.000000	0.0
0.000146	-0.000000	0.0
0.000159	-0.000000	0.0
0.000173	-0.000000	0.0
0.000188	-0.000000	0.0
0.000204	-0.000000	0.0
0.000221	-0.000000	0.0
0.000239	-0.000001	0.0
0.000258	-0.000001	0.0
0.000278	-0.000001	0.0
0.000299	-0.000001	0.0
0.000321	-0.000001	0.0
0.000345	-0.000001	0.0
0.000371	-0.000001	0.0
0.000398	-0.000001	0.0
0.000426	-0.000001	0.0
0.000457	-0.000001	0.0
0.000489	-0.000001	0.0
0.000523	-0.000001	0.0
0.000559	-0.000001	0.0
0.000598	-0.000002	0.0
0.000638	-0.000002	0.0
0.000681	-0.000002	0.0
0.000727	-0.000002	0.0
0.000775	-0.000002	0.0
0.000827	-0.000002	0.0
0.000881	-0.000002	0.0
0.000939	-0.000003	0.0
0.001000	-0.000003	0.0
0.001064	-0.000003	0.0
0.001133	-0.000003	0.0
0.001205	-0.000004	0.0
0.001282	-0.000004	0.0
0.001364	-0.000004	0.0
0.001450	-0.000004	0.0
0.001542	-0.000005	0.0
0.001640	-0.000005	0.0
0.001743	-0.000006	0.0
0.001853	-0.000006	0.0
0.001970	-0.000006	0.0
0.002094	-0.000007	0.0
0.002226	-0.000007	0.0
0.002367	-0.000008	0.0
0.002517	-0.000008	0.0
0.002677	-0.000009	0.0
0.002848	-0.000010	0.0
0.003031	-0.000010	0.0
0.003227	-0.000011	0.0
0.003437	-0.000012	0.0
0.003662	-0.000012	0.0
0.003904	-0.000013	0.0
0.004165	-0.000014	0.0
0.004446	-0.000015	0.0
0.004749	-0.000016	0.0
0.005078	-0.000017	0.0
0.005434	-0.000018	0.0
0.005821	-0.000019	0.0
0.006242	-0.000020	0.0
0.006702	-0.000021	0.0
0.007206	-0.000022	0.0
0.007758	-0.000023	0.0
0.008366	-0.000023	0.0
0.009037	-0.000024	0.0
0.009781	-0.000025	0.0
0.010607	-0.000025	0.0
0.011529	-0.000026	0.0
0.012561	-0.000026	0.0
0.013722	-0.000026	0.0
0.015033	-0.000026	0.0
0.016522	-0.000025	0.0
0.018222	-0.000024	0.0
0.020173	-0.000023	0.0
0.022428	-0.000021	0.0
0.025053	-0.000019	0.0
0.028133	-0.000016	0.0
0.031782	-0.000012	0.0
0.036152	-0.000008	0.0
0.041458	-0.000003	0.0
0.048007	0.000002	0.0
0.056265	0.000006	0.0
0.066978	0.000009	0.0
0.081433	0.000011	0.0
0.102093	0.000010	0.0
0.134440	0.000006	0.0
0.194333	0.000001	0.0
0.000013	0.000000	0.0
0.000021	0.000000	0.0
0.000030	-0.000000	0.0
0.000038	-0.000000	0.0
0.000047	-0.000000	0.0
0.000057	-0.000000	0.0
0.000066	-0.000000	0.0
0.000076	-0.000000	0.0
0.000086	-0.000000	0.0
0.000097	-0.000000	0.0
0.000108	-0.000000	0.0
0.000120	-0.000000	0.0
0.000132	-0.000000	0.0
0.000145	-0.000000	0.0
0.000159	-0.000000	0.0
0.000173	-0.000000	0.0
0.000189	-0.000000	0.0
0.000205	-0.000000	0.0
0.000222	-0.000000	0.0
0.000241	-0.000000	0.0
0.000260	-0.000001	0.0
0.000280	-0.000001	0.0
0.000302	-0.000001	0.0
0.000325	-0.000001	0.0
0.000350	-0.000001	0.0
0.000376	-0.000001	0.0
0.000404	-0.000001	0.0
0.000433	-0.000001	0.0
0.000464	-0.000001	0.0
0.000497	-0.000001	0.0
0.000532	-0.000001	0.0
0.000569	-0.000001	0.0
0.000608	-0.000002	0.0
0.000650	-0.000002	0.0
0.000694	-0.000002	0.0
0.000741	-0.000002	0.0
0.000791	-0.000002	0.0
0.000843	-0.000002	0.0
0.000899	-0.000002	0.0
0.000958	-0.000003	0.0
0.001020	-0.000003	0.0
0.001086	-0.000003	0.0
0.001156	-0.000003	0.0
0.001231	-0.000004	0.0
0.001309	-0.000004	0.0
0.001393	-0.000004	0.0
0.001481	-0.000004	0.0
0.001575	-0.000005	0.0
0.001674	-0.000005	0.0
0.001779	-0.000006	0.0
0.001891	-0.000006	0.0
0.002010	-0.000006	0.0
0.002136	-0.000007	0.0
0.002270	-0.000007	0.0
0.002413	-0.000008	0.0
0.002564	-0.000008	0.0
0.002726	-0.000009	0.0
0.002899	-0.000010	0.0
0.003083	-0.000010	0.0
0.003279	-0.000011	0.0
0.003490	-0.000012	0.0
0.003715	-0.000013	0.0
0.003957	-0.000013	0.0
0.004216	-0.000014	0.0
0.004495	-0.000015	0.0
0.004795	-0.000016	0.0
0.005119	-0.000017	0.0
0.005470	-0.000018	0.0
0.005849	-0.000019	0.0
0.006261	-0.000020	0.0
0.006708	-0.000021	0.0
0.007196	-0.000022	0.0
0.007729	-0.000023	0.0
0.008313	-0.000024	0.0
0.008955	-0.000025	0.0
0.009661	-0.000026	0.0
0.010442	-0.000027	0.0
0.011307	-0.000027	0.0
0.012270	-0.000028	0.0
0.013346	-0.000028	0.0
0.014552	-0.000028	0.0
0.015910	-0.000028	0.0
0.017447	-0.000027	0.0
0.019195	-0.000026	0.0
0.021194	-0.000025	0.0
0.023496	-0.000023	0.0
0.026165	-0.000021	0.0
0.029285	-0.000017	0.0
0.032966	-0.000013	0.0
0.037358	-0.000009	0.0
0.042671	-0.000004	0.0
0.049209	0.000001	0.0
0.057432	0.000005	0.0
0.068081	0.000008	0.0
0.082438	0.000010	0.0
0.102960	0.000009	0.0
0.135124	0.000006	0.0
0.194769	0.000001	0.0
0.000014	-0.000000	0.0
0.000023	-0.000000	0.0
0.000032	-0.000000	0.0
0.000041	-0.000000	0.0
0.000051	-0.000000	0.0
0.000061	-0.000000	0.0
0.000071	-0.000000	0.0
0.000082	-0.000000	0.0
0.000093	-0.000000	0.0
0.000105	-0.000000	0.0
0.000117	-0.000000	0.0
0.000129	-0.000000	0.0
0.000143	-0.000000	0.0
0.000157	-0.000000	0.0
0.000172	-0.000000	0.0
0.000187	-0.000000	0.0
0.000204	-0.000000	0.0
0.000222	-0.000000	0.0
0.000240	-0.000000	0.0
0.000260	-0.000001	0.0
0.000281	-0.000001	0.0
0.000303	-0.000001	0.0
0.000326	-0.000001	0.0
0.000351	-0.000001	0.0
0.000378	-0.000001	0.0
0.000406	-0.000001	0.0
0.000436	-0.000001	0.0
0.000467	-0.000001	0.0
0.000501	-0.000001	0.0
0.000537	-0.000001	0.0
0.000574	-0.000001	0.0
0.000614	-0.000002	0.0
0.000657	-0.000002	0.0
0.000702	-0.000002	0.0
0.000749	-0.000002	0.0
0.000800	-0.000002	0.0
0.000853	-0.000002	0.0
0.000909	-0.000003	0.0
0.000969	-0.000003	0.0
0.001033	-0.000003	0.0
0.001100	-0.000003	0.0
0.001171	-0.000003	0.0
0.001246	-0.000004	0.0
0.001326	-0.000004	0.0
0.001411	-0.000004	0.0
0.001500	-0.000005	0.0
0.001595	-0.000005	0.0
0.001695	-0.000005	0.0
0.001802	-0.000006	0.0
0.001915	-0.000006	0.0
0.002035	-0.000006	0.0
0.002162	-0.000007	0.0
0.002297	-0.000007	0.0
0.002440	-0.000008	0.0
0.002593	-0.000008	0.0
0.002755	-0.000009	0.0
0.002928	-0.000010	0.0
0.003112	-0.000010	0.0
0.003308	-0.000011	0.0
0.003518	-0.000012	0.0
0.003742	-0.000013	0.0
0.003982	-0.000014	0.0
0.004239	-0.000014	0.0
0.004514	-0.000015	0.0
0.004810	-0.000016	0.0
0.005129	-0.000017	0.0
0.005472	-0.000018	0.0
0.005843	-0.000019	0.0
0.006243	-0.000021	0.0
0.006677	-0.000022	0.0
0.007149	-0.000023	0.0
0.007662	-0.000024	0.0
0.008221	-0.000025	0.0
0.008833	-0.000026	0.0
0.009504	-0.000027	0.0
0.010241	-0.000028	0.0
0.011054	-0.000029	0.0
0.011953	-0.000029	0.0
0.012951	-0.000030	0.0
0.014063	-0.000030	0.0
0.015306	-0.000030	0.0
0.016701	-0.000030	0.0
0.018276	-0.000029	0.0
0.020062	-0.000028	0.0
0.022098	-0.000027	0.0
0.024434	-0.000025	0.0
0.027133	-0.000022	0.0
0.030278	-0.000019	0.0
0.033976	-0.000015	0.0
0.038377	-0.000011	0.0
0.043685	-0.000006	0.0
0.050202	-0.000001	0.0
0.058386	0.000004	0.0
0.068973	0.000007	0.0
0.083242	0.000009	0.0
0.103647	0.000009	0.0
0.135662	0.000006	0.0
0.195110	0.000000	0.0
0.000015	-0.000000	0.0
0.000024	-0.000000	0.0
0.000034	-0.000000	0.0
0.000045	-0.000000	0.0
0.000055	-0.000000	0.0
0.000066	-0.000000	0.0
0.000077	-0.000000	0.0
0.000088	-0.000000	0.0
0.000100	-0.000000	0.0
0.000112	-0.000000	0.0
0.000125	-0.000000	0.0
0.000139	-0.000000	0.0
0.000153	-0.000000	0.0
0.000168	-0.000000	0.0
0.000184	-0.000000	0.0
0.000201	-0.000000	0.0
0.000219	-0.000000	0.0
0.000238	-0.000000	0.0
0.000258	-0.000001	0.0
0.000279	-0.000001	0.0
0.000301	-0.000001	0.0
0.000325	-0.000001	0.0
0.000350	-0.000001	0.0
0.000377	-0.000001	0.0
0.000405	-0.000001	0.0
0.000435	-0.000001	0.0
0.000467	-0.000001	0.0
0.000501	-0.000001	0.0
0.000537	-0.000001	0.0
0.000575	-0.000001	0.0
0.000616	-0.000002	0.0
0.000658	-0.000002	0.0
0.000704	-0.000002	0.0
0.000752	-0.000002	0.0
0.000803	-0.000002	0.0
0.000857	-0.000002	0.0
0.000914	-0.000003	0.0
0.000974	-0.000003	0.0
0.001038	-0.000003	0.0
0.001106	-0.000003	0.0
0.001178	-0.000003	0.0
0.001253	-0.000004	0.0
0.001334	-0.000004	0.0
0.001419	-0.000004	0.0
0.001509	-0.000005	0.0
0.001604	-0.000005	0.0
0.001706	-0.000005	0.0
0.001813	-0.000006	0.0
0.001926	-0.000006	0.0