# vtk DataFile Version 3.0
Header
ASCII
DATASET RECTILINEAR_GRID
DIMENSIONS 98 98 1
X_COORDINATES 98 double
0.030000 0.050000 0.070000 0.090000 0.110000 0.130000 0.150000 0.170000 0.190000 0.210000 0.230000 0.250000 0.270000 0.290000 0.310000 0.330000 0.350000 0.370000 0.390000 0.410000 0.430000 0.450000 0.470000 0.490000 0.510000 0.530000 0.550000 0.570000 0.590000 0.610000 0.630000 0.650000 0.670000 0.690000 0.710000 0.730000 0.750000 0.770000 0.790000 0.810000 0.830000 0.850000 0.870000 0.890000 0.910000 0.930000 0.950000 0.970000 0.990000 1.010000 1.030000 1.050000 1.070000 1.090000 1.110000 1.130000 1.150000 1.170000 1.190000 1.210000 1.230000 1.250000 1.270000 1.290000 1.310000 1.330000 1.350000 1.370000 1.390000 1.410000 1.430000 1.450000 1.470000 1.490000 1.510000 1.530000 1.550000 1.570000 1.590000 1.610000 1.630000 1.650000 1.670000 1.690000 1.710000 1.730000 1.750000 1.770000 1.790000 1.810000 1.830000 1.850000 1.870000 1.890000 1.910000 1.930000 1.950000 1.970000 
Y_COORDINATES 98 double
0.030000 0.050000 0.070000 0.090000 0.110000 0.130000 0.150000 0.170000 0.190000 0.210000 0.230000 0.250000 0.270000 0.290000 0.310000 0.330000 0.350000 0.370000 0.390000 0.410000 0.430000 0.450000 0.470000 0.490000 0.510000 0.530000 0.550000 0.570000 0.590000 0.610000 0.630000 0.650000 0.670000 0.690000 0.710000 0.730000 0.750000 0.770000 0.790000 0.810000 0.830000 0.850000 0.870000 0.890000 0.910000 0.930000 0.950000 0.970000 0.990000 1.010000 1.030000 1.050000 1.070000 1.090000 1.110000 1.130000 1.150000 1.170000 1.190000 1.210000 1.230000 1.250000 1.270000 1.290000 1.310000 1.330000 1.350000 1.370000 1.390000 1.410000 1.430000 1.450000 1.470000 1.490000 1.510000 1.530000 1.550000 1.570000 1.590000 1.610000 1.630000 1.650000 1.670000 1.690000 1.710000 1.730000 1.750000 1.770000 1.790000 1.810000 1.830000 1.850000 1.870000 1.890000 1.910000 1.930000 1.950000 1.970000 
Z_COORDINATES 1 double
0.0
POINT_DATA 9604
VECTORS velocity double
-0.000005	-0.000004	0.0
-0.000002	-0.000002	0.0
-0.000001	-0.000000	0.0
-0.000000	0.000000	0.0
0.000000	0.000001	0.0
0.000000	0.000001	0.0
0.000000	0.000001	0.0
0.000000	0.000001	0.0
0.000001	0.000001	0.0
0.000001	0.000001	0.0
0.000001	0.000001	0.0
0.000001	0.000001	0.0
0.000001	0.000001	0.0
0.000001	0.000001	0.0
0.000001	0.000001	0.0
0.000001	0.000001	0.0
0.000001	0.000001	0.0
0.000001	0.000001	0.0
0.000002	0.000001	0.0
0.000002	0.000001	0.0
0.000002	0.000001	0.0
0.000003	0.000001	0.0
0.000003	0.000001	0.0
0.000003	0.000001	0.0
0.000004	0.000001	0.0
0.000004	0.000001	0.0
0.000005	0.000001	0.0
0.000006	0.000001	0.0
0.000007	0.000001	0.0
0.000008	0.000001	0.0
0.000009	0.000001	0.0
0.000010	0.000001	0.0
0.000012	0.000001	0.0
0.000014	0.000001	0.0
0.000015	0.000001	0.0
0.000018	0.000001	0.0
0.000020	0.000001	0.0
0.000023	0.000001	0.0
0.000026	0.000001	0.0
0.000029	0.000001	0.0
0.000033	0.000001	0.0
0.000038	0.000001	0.0
0.000043	0.000001	0.0
0.000048	0.000001	0.0
0.000054	0.000001	0.0
0.000061	0.000001	0.0
0.000068	0.000001	0.0
0.000077	0.000001	0.0
0.000086	0.000001	0.0
0.000096	0.000001	0.0
0.000107	0.000001	0.0
0.000119	0.000001	0.0
0.000133	0.000001	0.0
0.000148	0.000001	0.0
0.000164	0.000001	0.0
0.000182	0.000001	0.0
0.000202	0.000001	0.0
0.000224	0.000001	0.0
0.000248	0.000001	0.0
0.000274	0.000001	0.0
0.000303	0.000001	0.0
0.000334	0.000001	0.0
0.000368	0.000001	0.0
0.000406	0.000001	0.0
0.000448	0.000001	0.0
0.000493	0.000001	0.0
0.000543	0.000001	0.0
0.000598	0.000001	0.0
0.000658	0.000001	0.0
0.000725	0.000001	0.0
0.000799	0.000001	0.0
0.000881	0.000001	0.0
0.000972	0.000001	0.0
0.001073	0.000001	0.0
0.001186	0.000001	0.0
0.001313	0.000001	0.0
0.001455	0.000001	0.0
0.001617	0.000001	0.0
0.001801	0.000001	0.0
0.002012	0.000001	0.0
0.002254	0.000001	0.0
0.002536	0.000001	0.0
0.002866	0.000001	0.0
0.003256	0.000001	0.0
0.003722	0.000001	0.0
0.004284	0.000001	0.0
0.004974	0.000000	0.0
0.005833	-0.000000	0.0
0.006921	-0.000001	0.0
0.008332	-0.000001	0.0
0.010207	-0.000002	0.0
0.012778	-0.000003	0.0
0.016442	-0.000004	0.0
0.021925	-0.000006	0.0
0.030659	-0.000007	0.0
0.045767	-0.000009	0.0
0.074968	-0.000010	0.0
0.141638	-0.000011	0.0
-0.000002	-0.000002	0.0
-0.000002	-0.000001	0.0
-0.000001	-0.000001	0.0
-0.000000	-0.000000	0.0
-0.000000	0.000000	0.0
0.000000	0.000000	0.0
0.000000	0.000001	0.0
0.000000	0.000001	0.0
0.000001	0.000001	0.0
0.000001	0.000001	0.0
0.000001	0.000001	0.0
0.000001	0.000001	0.0
0.000001	0.000001	0.0
0.000001	0.000001	0.0
0.000001	0.000001	0.0
0.000002	0.000001	0.0
0.000002	0.000001	0.0
0.000002	0.000001	0.0
0.000003	0.000001	0.0
0.000003	0.000001	0.0
0.000003	0.000001	0.0
0.000004	0.000001	0.0
0.000005	0.000001	0.0
0.000005	0.000001	0.0
0.000006	0.000001	0.0
0.000007	0.000001	0.0
0.000008	0.000001	0.0
0.000010	0.000001	0.0
0.000011	0.000001	0.0
0.000013	0.000001	0.0
0.000015	0.000001	0.0
0.000017	0.000001	0.0
0.000019	0.000001	0.0
0.000022	0.000001	0.0
0.000025	0.000001	0.0
0.000029	0.000001	0.0
0.000033	0.000001	0.0
0.000038	0.000001	0.0
0.000043	0.000001	0.0
0.000049	0.000001	0.0
0.000055	0.000001	0.0
0.000062	0.000001	0.0
0.000071	0.000001	0.0
0.000080	0.000001	0.0
0.000090	0.000001	0.0
0.000101	0.000001	0.0
0.000113	0.000001	0.0
0.000127	0.000001	0.0
0.000142	0.000001	0.0
0.000159	0.000001	0.0
0.000178	0.000001	0.0
0.000198	0.000001	0.0
0.000221	0.000001	0.0
0.000245	0.000001	0.0
0.000273	0.000001	0.0
0.000303	0.000001	0.0
0.000336	0.000001	0.0
0.000372	0.000001	0.0
0.000411	0.000001	0.0
0.000455	0.000001	0.0
0.000502	0.000001	0.0
0.000554	0.000001	0.0
0.000612	0.000001	0.0
0.000674	0.000001	0.0
0.000743	0.000001	0.0
0.000818	0.000001	0.0
0.000901	0.000001	0.0
0.000992	0.000001	0.0
0.001092	0.000001	0.0
0.001202	0.000001	0.0
0.001325	0.000001	0.0
0.001460	0.000001	0.0
0.001610	0.000001	0.0
0.001777	0.000001	0.0
0.001963	0.000001	0.0
0.002172	0.000001	0.0
0.002407	0.000001	0.0
0.002673	0.000001	0.0
0.002976	0.000001	0.0
0.003321	0.000001	0.0
0.003719	0.000001	0.0
0.004179	0.000001	0.0
0.004717	0.000001	0.0
0.005351	0.000001	0.0
0.006106	0.000000	0.0
0.007015	0.000000	0.0
0.008124	-0.000000	0.0
0.009496	-0.000001	0.0
0.011223	-0.000002	0.0
0.013440	-0.000003	0.0
0.016350	-0.000004	0.0
0.020276	-0.000006	0.0
0.025742	-0.000008	0.0
0.033655	-0.000010	0.0
0.045667	-0.000012	0.0
0.065026	-0.000015	0.0
0.098886	-0.000017	0.0
0.166861	-0.000017	0.0
-0.000001	-0.000001	0.0
-0.000001	-0.000001	0.0
-0.000001	-0.000000	0.0
-0.000000	-0.000000	0.0
0.000000	0.000000	0.0
0.000000	0.000000	0.0
0.000000	0.000000	0.0
0.000001	0.000000	0.0
0.000001	0.000000	0.0
0.000001	0.000000	0.0
0.000001	0.000000	0.0
0.000001	0.000000	0.0
0.000001	0.000000	0.0
0.000002	0.000000	0.0
0.000002	0.000000	0.0
0.000002	0.000000	0.0
0.000002	0.000000	0.0
0.000003	0.000000	0.0
0.000003	0.000000	0.0
0.000004	0.000000	0.0
0.000005	0.000000	0.0
0.000005	0.000000	0.0
0.000006	0.000000	0.0
0.000007	0.000000	0.0
0.000008	0.000000	0.0
0.000010	0.000000	0.0
0.000011	0.000000	0.0
0.000013	0.000000	0.0
0.000015	0.000000	0.0
0.000018	0.000000	0.0
0.000020	0.000000	0.0
0.000023	0.000000	0.0
0.000027	0.000000	0.0
0.000031	0.000000	0.0
0.000035	0.000000	0.0
0.000040	0.000000	0.0
0.000046	0.000000	0.0
0.000052	0.000000	0.0
0.000060	0.000000	0.0
0.000068	0.000000	0.0
0.000077	0.000000	0.0
0.000087	0.000000	0.0
0.000098	0.000000	0.0
0.000111	0.000000	0.0
0.000125	0.000000	0.0
0.000140	0.000000	0.0
0.000158	0.000000	0.0
0.000177	0.000000	0.0
0.000198	0.000000	0.0
0.000222	0.000000	0.0
0.000248	0.000000	0.0
0.000276	0.000000	0.0
0.000308	0.000000	0.0
0.000342	0.000000	0.0
0.000380	0.000000	0.0
0.000422	0.000000	0.0
0.000468	0.000000	0.0
0.000518	0.000000	0.0
0.000573	0.000000	0.0
0.000633	0.000000	0.0
0.000700	0.000000	0.0
0.000772	0.000000	0.0
0.000851	0.000000	0.0
0.000938	0.000000	0.0
0.001034	0.000000	0.0
0.001138	0.000000	0.0
0.001253	0.000000	0.0
0.001379	0.000000	0.0
0.001518	0.000000	0.0
0.001671	0.000000	0.0
0.001840	0.000001	0.0
0.002027	0.000001	0.0
0.002234	0.000001	0.0
0.002465	0.000001	0.0
0.002722	0.000001	0.0
0.003010	0.000001	0.0
0.003333	0.000001	0.0
0.003698	0.000001	0.0
0.004113	0.000001	0.0
0.004585	0.000001	0.0
0.005128	0.000001	0.0
0.005755	0.000001	0.0
0.006485	0.000001	0.0
0.007343	0.000000	0.0
0.008359	0.000000	0.0
0.009576	-0.000000	0.0
0.011052	-0.000001	0.0
0.012865	-0.000002	0.0
0.015127	-0.000003	0.0
0.017996	-0.000004	0.0
0.021711	-0.000006	0.0
0.026629	-0.000008	0.0
0.033319	-0.000011	0.0
0.042712	-0.000014	0.0
0.056424	-0.000017	0.0
0.077481	-0.000019	0.0
0.112307	-0.000021	0.0
0.178493	-0.000021	0.0
-0.000000	-0.000001	0.0
-0.000000	-0.000000	0.0
-0.000000	-0.000000	0.0
-0.000000	-0.000000	0.0
0.000000	0.000000	0.0
0.000000	0.000000	0.0
0.000000	0.000000	0.0
0.000001	0.000000	0.0
0.000001	0.000000	0.0
0.000001	0.000000	0.0
0.000001	0.000000	0.0
0.000001	0.000000	0.0
0.000002	0.000000	0.0
0.000002	0.000000	0.0
0.000002	0.000000	0.0
0.000003	0.000000	0.0
0.000003	0.000000	0.0
0.000004	0.000000	0.0
0.000004	0.000000	0.0
0.000005	0.000000	0.0
0.000006	0.000000	0.0
0.000007	0.000000	0.0
0.000008	0.000000	0.0
0.000009	0.000000	0.0
0.000011	0.000000	0.0
0.000013	0.000000	0.0
0.000015	0.000000	0.0
0.000017	0.000000	0.0
0.000019	0.000000	0.0
0.000022	0.000000	0.0
0.000026	0.000000	0.0
0.000030	0.000000	0.0
0.000034	0.000000	0.0
0.000039	0.000000	0.0
0.000045	0.000000	0.0
0.000052	0.000000	0.0
0.000059	0.000000	0.0
0.000067	0.000000	0.0
0.000076	0.000000	0.0
0.000087	0.000000	0.0
0.000098	0.000000	0.0
0.000111	0.000000	0.0
0.000126	0.000000	0.0
0.000142	0.000000	0.0
0.000160	0.000000	0.0
0.000180	0.000000	0.0
0.000202	0.000000	0.0
0.000226	0.000000	0.0
0.000254	0.000000	0.0
0.000283	0.000000	0.0
0.000317	0.000000	0.0
0.000353	0.000000	0.0
0.000393	0.000000	0.0
0.000437	0.000000	0.0
0.000486	0.000000	0.0
0.000539	0.000000	0.0
0.000598	0.000000	0.0
0.000662	0.000000	0.0
0.000732	0.000000	0.0
0.000809	0.000000	0.0
0.000893	0.000000	0.0
0.000986	0.000000	0.0
0.001087	0.000000	0.0
0.001197	0.000000	0.0
0.001319	0.000000	0.0
0.001452	0.000000	0.0
0.001598	0.000000	0.0
0.001758	0.000000	0.0
0.001934	0.000000	0.0
0.002128	0.000000	0.0
0.002342	0.000000	0.0
0.002579	0.000000	0.0
0.002841	0.000000	0.0
0.003132	0.000001	0.0
0.003456	0.000001	0.0
0.003818	0.000001	0.0
0.004225	0.000001	0.0
0.004683	0.000001	0.0
0.005202	0.000001	0.0
0.005792	0.000001	0.0
0.006468	0.000001	0.0
0.007246	0.000001	0.0
0.008149	0.000000	0.0
0.009205	0.000000	0.0
0.010451	-0.000000	0.0
0.011934	-0.000001	0.0
0.013719	-0.000001	0.0
0.015895	-0.000003	0.0
0.018583	-0.000004	0.0
0.021953	-0.000006	0.0
0.026254	-0.000008	0.0
0.031852	-0.000010	0.0
0.039309	-0.000013	0.0
0.049525	-0.000017	0.0
0.064019	-0.000020	0.0
0.085597	-0.000023	0.0
0.120230	-0.000025	0.0
0.184599	-0.000024	0.0
-0.000000	-0.000000	0.0
-0.000000	-0.000000	0.0
-0.000000	-0.000000	0.0
0.000000	-0.000000	0.0
0.000000	-0.000000	0.0
0.000000	0.000000	0.0
0.000001	0.000000	0.0
0.000001	0.000000	0.0
0.000001	0.000000	0.0
0.000001	0.000000	0.0
0.000001	0.000000	0.0
0.000002	0.000000	0.0
0.000002	0.000000	0.0
0.000002	0.000000	0.0
0.000003	0.000000	0.0
0.000003	0.000000	0.0
0.000004	0.000000	0.0
0.000004	0.000000	0.0
0.000005	0.000000	0.0
0.000006	0.000000	0.0
0.000007	0.000000	0.0
0.000008	0.000000	0.0
0.000010	0.000000	0.0
0.000011	0.000000	0.0
0.000013	0.000000	0.0
0.000015	0.000000	0.0
0.000018	0.000000	0.0
0.000020	0.000000	0.0
0.000024	0.000000	0.0
0.000027	0.000000	0.0
0.000031	0.000000	0.0
0.000036	0.000000	0.0
0.000042	0.000000	0.0
0.000048	0.000000	0.0
0.000055	0.000000	0.0
0.000063	0.000000	0.0
0.000072	0.000000	0.0
0.000081	0.000000	0.0
0.000093	0.000000	0.0
0.000105	0.000000	0.0
0.000119	0.000000	0.0
0.000135	0.000000	0.0
0.000153	0.000000	0.0
0.000172	0.000000	0.0
0.000194	0.000000	0.0
0.000218	0.000000	0.0
0.000245	0.000000	0.0
0.000275	0.000000	0.0
0.000308	0.000000	0.0
0.000344	0.000000	0.0
0.000384	0.000000	0.0
0.000429	0.000000	0.0
0.000477	0.000000	0.0
0.000531	0.000000	0.0
0.000590	-0.000000	0.0
0.000654	-0.000000	0.0
0.000725	-0.000000	0.0
0.000803	-0.000000	0.0
0.000888	-0.000000	0.0
0.000981	-0.000000	0.0
0.001083	-0.000000	0.0
0.001194	-0.000000	0.0
0.001317	-0.000000	0.0
0.001450	0.000000	0.0
0.001597	0.000000	0.0
0.001757	0.000000	0.0
0.001933	0.000000	0.0
0.002126	0.000000	0.0
0.002338	0.000000	0.0
0.002571	0.000000	0.0
0.002828	0.000000	0.0
0.003111	0.000000	0.0
0.003425	0.000000	0.0
0.003773	0.000000	0.0
0.004161	0.000000	0.0
0.004593	0.000001	0.0
0.005077	0.000001	0.0
0.005621	0.000001	0.0
0.006235	0.000001	0.0
0.006932	0.000001	0.0
0.007728	0.000001	0.0
0.008641	0.000001	0.0
0.009696	0.000000	0.0
0.010924	0.000000	0.0
0.012365	-0.000000	0.0
0.014071	-0.000001	0.0
0.016109	-0.000002	0.0
0.018574	-0.000003	0.0
0.021588	-0.000005	0.0
0.025326	-0.000007	0.0
0.030035	-0.000009	0.0
0.036073	-0.000012	0.0
0.043982	-0.000015	0.0
0.054616	-0.000019	0.0
0.069409	-0.000022	0.0
0.091017	-0.000025	0.0
0.125172	-0.000027	0.0
0.188148	-0.000026	0.0
-0.000000	-0.000000	0.0
-0.000000	-0.000000	0.0
0.000000	-0.000000	0.0
0.000000	-0.000000	0.0
0.000000	-0.000000	0.0
0.000000	0.000000	0.0
0.000001	0.000000	0.0
0.000001	0.000000	0.0
0.000001	0.000000	0.0
0.000001	0.000000	0.0
0.000002	0.000000	0.0
0.000002	0.000000	0.0
0.000002	0.000000	0.0
0.000003	0.000000	0.0
0.000003	0.000000	0.0
0.000004	0.000000	0.0
0.000004	0.000000	0.0
0.000005	0.000000	0.0
0.000006	0.000000	0.0
0.000007	0.000000	0.0
0.000008	0.000000	0.0
0.000010	0.000000	0.0
0.000011	0.000000	0.0
0.000013	0.000000	0.0
0.000015	0.000000	0.0
0.000018	0.000000	0.0
0.000021	0.000000	0.0
0.000024	0.000000	0.0
0.000028	0.000000	0.0
0.000032	0.000000	0.0
0.000037	0.000000	0.0
0.000043	0.000000	0.0
0.000049	0.000000	0.0
0.000056	0.000000	0.0
0.000064	0.000000	0.0
0.000074	0.000000	0.0
0.000084	0.000000	0.0
0.000096	0.000000	0.0
0.000109	0.000000	0.0
0.000124	0.000000	0.0
0.000140	0.000000	0.0
0.000159	-0.000000	0.0
0.000179	-0.000000	0.0
0.000202	-0.000000	0.0
0.000228	-0.000000	0.0
0.000256	-0.000000	0.0
0.000288	-0.000000	0.0
0.000323	-0.000000	0.0
0.000361	-0.000000	0.0
0.000404	-0.000000	0.0
0.000451	-0.000000	0.0
0.000503	-0.000000	0.0
0.000560	-0.000000	0.0
0.000623	-0.000000	0.0
0.000691	-0.000000	0.0
0.000767	-0.000000	0.0
0.000850	-0.000000	0.0
0.000940	-0.000000	0.0
0.001040	-0.000000	0.0
0.001149	-0.000000	0.0
0.001268	-0.000000	0.0
0.001398	-0.000000	0.0
0.001540	-0.000000	0.0
0.001696	-0.000000	0.0
0.001866	-0.000000	0.0
0.002053	-0.000000	0.0
0.002257	-0.000000	0.0
0.002481	-0.000000	0.0
0.002727	0.000000	0.0
0.002998	0.000000	0.0
0.003295	0.000000	0.0
0.003623	0.000000	0.0
0.003985	0.000000	0.0
0.004387	0.000000	0.0
0.004832	0.000000	0.0
0.005329	0.000000	0.0
0.005883	0.000001	0.0
0.006505	0.000001	0.0
0.007206	0.000001	0.0
0.007999	0.000001	0.0
0.008901	0.000001	0.0
0.009932	0.000000	0.0
0.011119	0.000000	0.0
0.012493	-0.000000	0.0
0.014097	-0.000001	0.0
0.015984	-0.000001	0.0
0.018225	-0.000002	0.0
0.020911	-0.000004	0.0
0.024168	-0.000005	0.0
0.028168	-0.000007	0.0
0.033149	-0.000010	0.0
0.039459	-0.000013	0.0
0.047616	-0.000017	0.0
0.058434	-0.000020	0.0
0.073288	-0.000024	0.0
0.094746	-0.000027	0.0
0.128415	-0.000029	0.0
0.190378	-0.000027	0.0
0.000000	-0.000000	0.0
0.000000	-0.000000	0.0
0.000000	-0.000000	0.0
0.000000	-0.000000	0.0
0.000000	-0.000000	0.0
0.000001	-0.000000	0.0
0.000001	0.000000	0.0
0.000001	0.000000	0.0
0.000001	0.000000	0.0
0.000001	0.000000	0.0
0.000002	0.000000	0.0
0.000002	0.000000	0.0
0.000002	0.000000	0.0
0.000003	0.000000	0.0
0.000003	0.000000	0.0
0.000004	0.000000	0.0
0.000005	0.000000	0.0
0.000006	0.000000	0.0
0.000007	0.000000	0.0
0.000008	0.000000	0.0
0.000009	0.000000	0.0
0.000011	0.000000	0.0
0.000013	0.000000	0.0
0.000015	0.000000	0.0
0.000017	-0.000000	0.0
0.000020	-0.000000	0.0
0.000024	-0.000000	0.0
0.000027	-0.000000	0.0
0.000032	-0.000000	0.0
0.000037	-0.000000	0.0
0.000042	-0.000000	0.0
0.000049	-0.000000	0.0
0.000056	-0.000000	0.0
0.000064	-0.000000	0.0
0.000074	-0.000000	0.0
0.000084	-0.000000	0.0
0.000096	-0.000000	0.0
0.000110	-0.000000	0.0
0.000125	-0.000000	0.0
0.000142	-0.000000	0.0
0.000161	-0.000000	0.0
0.000182	-0.000000	0.0
0.000205	-0.000000	0.0
0.000232	-0.000000	0.0
0.000261	-0.000000	0.0
0.000293	-0.000000	0.0
0.000329	-0.000000	0.0
0.000369	-0.000000	0.0
0.000414	-0.000000	0.0
0.000462	-0.000000	0.0
0.000516	-0.000000	0.0
0.000575	-0.000000	0.0
0.000640	-0.000000	0.0
0.000712	-0.000000	0.0
0.000790	-0.000000	0.0
0.000876	-0.000000	0.0
0.000971	-0.000000	0.0
0.001074	-0.000000	0.0
0.001187	-0.000000	0.0
0.001311	-0.000000	0.0
0.001447	-0.000000	0.0
0.001595	-0.000000	0.0
0.001756	-0.000000	0.0
0.001933	-0.000000	0.0
0.002126	-0.000000	0.0
0.002338	-0.000000	0.0
0.002570	-0.000000	0.0
0.002823	-0.000000	0.0
0.003101	-0.000000	0.0
0.003406	-0.000000	0.0
0.003742	0.000000	0.0
0.004111	0.000000	0.0
0.004519	0.000000	0.0
0.004969	0.000000	0.0
0.005468	0.000000	0.0
0.006023	0.000000	0.0
0.006642	0.000000	0.0
0.007335	0.000001	0.0
0.008112	0.000001	0.0
0.008990	0.000001	0.0
0.009984	0.000001	0.0
0.011117	0.000000	0.0
0.012415	0.000000	0.0
0.013912	-0.000000	0.0
0.015650	-0.000001	0.0
0.017682	-0.000001	0.0
0.020079	-0.000002	0.0
0.022933	-0.000004	0.0
0.026366	-0.000006	0.0
0.030545	-0.000008	0.0
0.035702	-0.000011	0.0
0.042170	-0.000014	0.0
0.050448	-0.000018	0.0
0.061323	-0.000021	0.0
0.076130	-0.000025	0.0
0.097386	-0.000028	0.0
0.130637	-0.000030	0.0
0.191864	-0.000028	0.0
0.000000	-0.000000	0.0
0.000000	-0.000000	0.0
0.000000	-0.000000	0.0
0.000000	-0.000000	0.0
0.000001	-0.000000	0.0
0.000001	-0.000000	0.0
0.000001	-0.000000	0.0
0.000001	-0.000000	0.0
0.000001	0.000000	0.0
0.000002	0.000000	0.0
0.000002	-0.000000	0.0
0.000002	-0.000000	0.0
0.000003	-0.000000	0.0
0.000003	-0.000000	0.0
0.000004	-0.000000	0.0
0.000005	-0.000000	0.0
0.000005	-0.000000	0.0
0.000006	-0.000000	0.0
0.000008	-0.000000	0.0
0.000009	-0.000000	0.0
0.000010	-0.000000	0.0
0.000012	-0.000000	0.0
0.000014	-0.000000	0.0
0.000017	-0.000000	0.0
0.000020	-0.000000	0.0
0.000023	-0.000000	0.0
0.000027	-0.000000	0.0
0.000031	-0.000000	0.0
0.000036	-0.000000	0.0
0.000041	-0.000000	0.0
0.000048	-0.000000	0.0
0.000055	-0.000000	0.0
0.000063	-0.000000	0.0
0.000072	-0.000000	0.0
0.000083	-0.000000	0.0
0.000095	-0.000000	0.0
0.000108	-0.000000	0.0
0.000123	-0.000000	0.0
0.000140	-0.000000	0.0
0.000159	-0.000000	0.0
0.000181	-0.000000	0.0
0.000204	-0.000000	0.0
0.000231	-0.000000	0.0
0.000260	-0.000000	0.0
0.000293	-0.000000	0.0
0.000330	-0.000000	0.0
0.000370	-0.000000	0.0
0.000415	-0.000000	0.0
0.000464	-0.000000	0.0
0.000519	-0.000000	0.0
0.000579	-0.000000	0.0
0.000645	-0.000000	0.0
0.000718	-0.000000	0.0
0.000798	-0.000000	0.0
0.000886	-0.000000	0.0
0.000983	-0.000000	0.0
0.001088	-0.000000	0.0
0.001204	-0.000000	0.0
0.001330	-0.000000	0.0
0.001468	-0.000000	0.0
0.001619	-0.000000	0.0
0.001784	-0.000000	0.0
0.001965	-0.000000	0.0
0.002162	-0.000000	0.0
0.002377	-0.000000	0.0
0.002612	-0.000000	0.0
0.002869	-0.000000	0.0
0.003150	-0.000000	0.0
0.003458	-0.000000	0.0
0.003796	-0.000000	0.0
0.004167	-0.000000	0.0
0.004574	0.000000	0.0
0.005023	0.000000	0.0
0.005519	0.000000	0.0
0.006067	0.000000	0.0
0.006675	0.000000	0.0
0.007351	0.000000	0.0
0.008106	0.000001	0.0
0.008952	0.000001	0.0
0.009903	0.000001	0.0
0.010978	0.000001	0.0
0.012197	0.000000	0.0
0.013589	0.000000	0.0
0.015186	-0.000000	0.0
0.017032	-0.000001	0.0
0.019178	-0.000002	0.0
0.021695	-0.000003	0.0
0.024673	-0.000004	0.0
0.028230	-0.000006	0.0
0.032528	-0.000008	0.0
0.037792	-0.000011	0.0
0.044345	-0.000014	0.0
0.052671	-0.000018	0.0
0.063536	-0.000022	0.0
0.078251	-0.000026	0.0
0.099307	-0.000029	0.0
0.132215	-0.000031	0.0
0.192901	-0.000029	0.0
0.000000	-0.000000	0.0
0.000000	-0.000000	0.0
0.000000	-0.000000	0.0
0.000000	-0.000000	0.0
0.000001	-0.000000	0.0
0.000001	-0.000000	0.0
0.000001	-0.000000	0.0
0.000001	-0.000000	0.0
0.000001	-0.000000	0.0
0.000002	-0.000000	0.0
0.000002	-0.000000	0.0
0.000003	-0.000000	0.0
0.000003	-0.000000	0.0
0.000004	-0.000000	0.0
0.000004	-0.000000	0.0
0.000005	-0.000000	0.0
0.000006	-0.000000	0.0
0.000007	-0.000000	0.0
0.000008	-0.000000	0.0
0.000010	-0.000000	0.0
0.000012	-0.000000	0.0
0.000014	-0.000000	0.0
0.000016	-0.000000	0.0
0.000019	-0.000000	0.0
0.000022	-0.000000	0.0
0.000025	-0.000000	0.0
0.000029	-0.000000	0.0
0.000034	-0.000000	0.0
0.000040	-0.000000	0.0
0.000046	-0.000000	0.0
0.000053	-0.000000	0.0
0.000061	-0.000000	0.0
0.000070	-0.000000	0.0
0.000080	-0.000000	0.0
0.000092	-0.000000	0.0
0.000105	-0.000000	0.0
0.000120	-0.000000	0.0
0.000137	-0.000000	0.0
0.000155	-0.000000	0.0
0.000176	-0.000000	0.0
0.000200	-0.000000	0.0
0.000226	-0.000000	0.0
0.000256	-0.000000	0.0
0.000288	-0.000000	0.0
0.000325	-0.000000	0.0
0.000365	-0.000000	0.0
0.000410	-0.000000	0.0
0.000459	-0.000000	0.0
0.000514	-0.000000	0.0
0.000574	-0.000000	0.0
0.000641	-0.000000	0.0
0.000714	-0.000000	0.0
0.000794	-0.000000	0.0
0.000882	-0.000000	0.0
0.000979	-0.000000	0.0
0.001085	-0.000000	0.0
0.001202	-0.000000	0.0
0.001329	-0.000000	0.0
0.001468	-0.000000	0.0
0.001620	-0.000000	0.0
0.001786	-0.000000	0.0
0.001967	-0.000000	0.0
0.002165	-0.000000	0.0
0.002380	-0.000000	0.0
0.002616	-0.000000	0.0
0.002873	-0.000000	0.0
0.003154	-0.000000	0.0
0.003461	-0.000000	0.0
0.003797	-0.000000	0.0
0.004165	-0.000000	0.0
0.004569	-0.000000	0.0
0.005011	-0.000000	0.0
0.005498	0.000000	0.0
0.006035	0.000000	0.0
0.006627	0.000000	0.0
0.007283	0.000000	0.0
0.008011	0.000000	0.0
0.008821	0.000001	0.0
0.009726	0.000001	0.0
0.010741	0.000001	0.0
0.011883	0.000001	0.0
0.013176	0.000000	0.0
0.014645	0.000000	0.0
0.016324	-0.000000	0.0
0.018255	-0.000001	0.0
0.020490	-0.000002	0.0
0.023097	-0.000003	0.0
0.026164	-0.000004	0.0
0.029806	-0.000006	0.0
0.034181	-0.000008	0.0
0.039507	-0.000011	0.0
0.046098	-0.000015	0.0
0.054428	-0.000019	0.0
0.065251	-0.000023	0.0
0.079863	-0.000026	0.0
0.100738	-0.000030	0.0
0.133371	-0.000031	0.0
0.193651	-0.000029	0.0
0.000000	-0.000000	0.0
0.000000	-0.000000	0.0
0.000000	-0.000000	0.0
0.000001	-0.000000	0.0
0.000001	-0.000000	0.0
0.000001	-0.000000	0.0
0.000001	-0.000000	0.0
0.000001	-0.000000	0.0
0.000002	-0.000000	0.0
0.000002	-0.000000	0.0
0.000002	-0.000000	0.0
0.000003	-0.000000	0.0
0.000003	-0.000000	0.0
0.000004	-0.000000	0.0
0.000005	-0.000000	0.0
0.000006	-0.000000	0.0
0.000007	-0.000000	0.0
0.000008	-0.000000	0.0
0.000009	-0.000000	0.0
0.000011	-0.000000	0.0
0.000013	-0.000000	0.0
0.000015	-0.000000	0.0
0.000018	-0.000000	0.0
0.000020	-0.000000	0.0
0.000024	-0.000000	0.0
0.000028	-0.000000	0.0
0.000032	-0.000000	0.0
0.000037	-0.000000	0.0
0.000043	-0.000000	0.0
0.000050	-0.000000	0.0
0.000058	-0.000000	0.0
0.000067	-0.000000	0.0
0.000077	-0.000000	0.0
0.000088	-0.000000	0.0
0.000101	-0.000000	0.0
0.000115	-0.000000	0.0
0.000131	-0.000000	0.0
0.000150	-0.000000	0.0
0.000170	-0.000000	0.0
0.000193	-0.000000	0.0
0.000219	-0.000000	0.0
0.000248	-0.000000	0.0
0.000280	-0.000000	0.0
0.000315	-0.000000	0.0
0.000355	-0.000000	0.0
0.000399	-0.000000	0.0
0.000448	-0.000000	0.0
0.000502	-0.000000	0.0
0.000562	-0.000000	0.0
0.000627	-0.000000	0.0
0.000700	-0.000000	0.0
0.000780	-0.000000	0.0
0.000867	-0.000000	0.0
0.000963	-0.000000	0.0
0.001069	-0.000000	0.0
0.001184	-0.000000	0.0
0.001311	-0.000000	0.0
0.001449	-0.000000	0.0
0.001600	-0.000000	0.0
0.001765	-0.000000	0.0
0.001945	-0.000000	0.0
0.002141	-0.000000	0.0
0.002356	-0.000000	0.0
0.002589	-0.000000	0.0
0.002844	-0.000000	0.0
0.003122	-0.000000	0.0
0.003425	-0.000000	0.0
0.003757	-0.000000	0.0
0.004119	-0.000000	0.0
0.004514	-0.000000	0.0
0.004947	-0.000000	0.0
0.005422	-0.000000	0.0
0.005944	0.000000	0.0
0.006517	0.000000	0.0
0.007149	0.000000	0.0
0.007847	0.000000	0.0
0.008620	0.000000	0.0
0.009478	0.000001	0.0
0.010435	0.000001	0.0
0.011504	0.000001	0.0
0.012705	0.000001	0.0
0.014058	0.000000	0.0
0.015590	0.000000	0.0
0.017335	-0.000000	0.0
0.019333	-0.000001	0.0
0.021636	-0.000002	0.0
0.024309	-0.000003	0.0
0.027439	-0.000004	0.0
0.031138	-0.000006	0.0
0.035560	-0.000009	0.0
0.040917	-0.000011	0.0
0.047518	-0.000015	0.0
0.055830	-0.000019	0.0
0.066597	-0.000023	0.0
0.081108	-0.000027	0.0
0.101827	-0.000030	0.0
0.134239	-0.000031	0.0
0.194208	-0.000030	0.0
0.000000	-0.000000	0.0
0.000000	-0.000000	0.0
0.000000	-0.000000	0.0
0.000001	-0.000000	0.0
0.000001	-0.000000	0.0
0.000001	-0.000000	0.0
0.000001	-0.000000	0.0
0.000001	-0.000000	0.0
0.000002	-0.000000	0.0
0.000002	-0.000000	0.0
0.000003	-0.000000	0.0
0.000003	-0.000000	0.0
0.000004	-0.000000	0.0
0.000004	-0.000000	0.0
0.000005	-0.000000	0.0
0.000006	-0.000000	0.0
0.000007	-0.000000	0.0
0.000008	-0.000000	0.0
0.000010	-0.000000	0.0
0.000012	-0.000000	0.0
0.000014	-0.000000	0.0
0.000016	-0.000000	0.0
0.000019	-0.000000	0.0
0.000022	-0.000000	0.0
0.000026	-0.000000	0.0
0.000030	-0.000000	0.0
0.000035	-0.000000	0.0
0.000041	-0.000000	0.0
0.000047	-0.000000	0.0
0.000054	-0.000000	0.0
0.000063	-0.000000	0.0
0.000072	-0.000000	0.0
0.000083	-0.000000	0.0
0.000095	-0.000000	0.0
0.000109	-0.000000	0.0
0.000125	-0.000000	0.0
0.000142	-0.000000	0.0
0.000162	-0.000000	0.0
0.000184	-0.000000	0.0
0.000209	-0.000000	0.0
0.000237	-0.000000	0.0
0.000268	-0.000000	0.0
0.000303	-0.000000	0.0
0.000342	-0.000000	0.0
0.000385	-0.000000	0.0
0.000432	-0.000000	0.0
0.000485	-0.000000	0.0
0.000543	-0.000000	0.0
0.000608	-0.000000	0.0
0.000679	-0.000000	0.0
0.000757	-0.000000	0.0
0.000843	-0.000000	0.0
0.000938	-0.000000	0.0
0.001041	-0.000000	0.0
0.001155	-0.000000	0.0
0.001279	-0.000000	0.0
0.001415	-0.000000	0.0
0.001564	-0.000001	0.0
0.001727	-0.000001	0.0
0.001904	-0.000001	0.0
0.002097	-0.000001	0.0
0.002308	-0.000001	0.0
0.002538	-0.000000	0.0
0.002788	-0.000000	0.0
0.003061	-0.000000	0.0
0.003358	-0.000000	0.0
0.003682	-0.000000	0.0
0.004035	-0.000000	0.0
0.004421	-0.000000	0.0
0.004842	-0.000000	0.0
0.005303	-0.000000	0.0
0.005807	-0.000000	0.0
0.006359	0.000000	0.0
0.006966	0.000000	0.0
0.007633	0.000000	0.0
0.008368	0.000000	0.0
0.009181	0.000000	0.0
0.010081	0.000001	0.0
0.011082	0.000001	0.0
0.012198	0.000001	0.0
0.013446	0.000001	0.0
0.014849	0.000000	0.0
0.016433	0.000000	0.0
0.018230	-0.000000	0.0
0.020280	-0.000001	0.0
0.022634	-0.000002	0.0
0.025356	-0.000003	0.0
0.028529	-0.000004	0.0
0.032265	-0.000006	0.0
0.036712	-0.000009	0.0
0.042082	-0.000012	0.0
0.048676	-0.000015	0.0
0.056957	-0.000019	0.0
0.067665	-0.000023	0.0
0.082083	-0.000027	0.0
0.102671	-0.000030	0.0
0.134905	-0.000032	0.0
0.194633	-0.000030	0.0
0.000000	-0.000000	0.0
0.000000	-0.000000	0.0
0.000000	-0.000000	0.0
0.000001	-0.000000	0.0
0.000001	-0.000000	0.0
0.000001	-0.000000	0.0
0.000001	-0.000000	0.0
0.000002	-0.000000	0.0
0.000002	-0.000000	0.0
0.000002	-0.000000	0.0
0.000003	-0.000000	0.0
0.000003	-0.000000	0.0
0.000004	-0.000000	0.0
0.000005	-0.000000	0.0
0.000005	-0.000000	0.0
0.000007	-0.000000	0.0
0.000008	-0.000000	0.0
0.000009	-0.000000	0.0
0.000011	-0.000000	0.0
0.000013	-0.000000	0.0
0.000015	-0.000000	0.0
0.000017	-0.000000	0.0
0.000020	-0.000000	0.0
0.000024	-0.000000	0.0
0.000028	-0.000000	0.0
0.000032	-0.000000	0.0
0.000038	-0.000000	0.0
0.000044	-0.000000	0.0
0.000051	-0.000000	0.0
0.000059	-0.000000	0.0
0.000068	-0.000000	0.0
0.000078	-0.000000	0.0
0.000089	-0.000000	0.0
0.000103	-0.000000	0.0
0.000117	-0.000000	0.0
0.000134	-0.000000	0.0
0.000153	-0.000000	0.0
0.000174	-0.000000	0.0
0.000198	-0.000000	0.0
0.000225	-0.000000	0.0
0.000255	-0.000000	0.0
0.000288	-0.000000	0.0
0.000325	-0.000000	0.0
0.000367	-0.000000	0.0
0.000413	-0.000000	0.0
0.000464	-0.000000	0.0
0.000521	-0.000000	0.0
0.000583	-0.000000	0.0
0.000652	-0.000000	0.0
0.000728	-0.000000	0.0
0.000812	-0.000000	0.0
0.000904	-0.000000	0.0
0.001005	-0.000000	0.0
0.001116	-0.000000	0.0
0.001237	-0.000000	0.0
0.001370	-0.000001	0.0
0.001515	-0.000001	0.0
0.001674	-0.000001	0.0
0.001847	-0.000001	0.0
0.002036	-0.000001	0.0
0.002242	-0.000001	0.0
0.002466	-0.000001	0.0
0.002710	-0.000001	0.0
0.002976	-0.000001	0.0
0.003265	-0.000000	0.0
0.003581	-0.000000	0.0
0.003924	-0.000000	0.0
0.004298	-0.000000	0.0
0.004705	-0.000000	0.0
0.005150	-0.000000	0.0
0.005635	-0.000000	0.0
0.006165	-0.000000	0.0
0.006745	0.000000	0.0
0.007382	0.000000	0.0
0.008080	0.000000	0.0
0.008848	0.000000	0.0
0.009695	0.000000	0.0
0.010632	0.000001	0.0
0.011670	0.000001	0.0
0.012825	0.000001	0.0
0.014114	0.000001	0.0
0.015558	0.000001	0.0
0.017183	0.000000	0.0
0.019021	-0.000000	0.0
0.021112	-0.000001	0.0
0.023503	-0.000001	0.0
0.026259	-0.000003	0.0
0.029462	-0.000004	0.0
0.033219	-0.000006	0.0
0.037679	-0.000009	0.0
0.043048	-0.000012	0.0
0.049627	-0.000015	0.0
0.057872	-0.000019	0.0
0.068523	-0.000023	0.0
0.082858	-0.000027	0.0
0.103334	-0.000030	0.0
0.135425	-0.000032	0.0
0.194963	-0.000030	0.0
0.000000	-0.000000	0.0
0.000000	-0.000000	0.0
0.000000	-0.000000	0.0
0.000001	-0.000000	0.0
0.000001	-0.000000	0.0
0.000001	-0.000000	0.0
0.000001	-0.000000	0.0
0.000002	-0.000000	0.0
0.000002	-0.000000	0.0
0.000002	-0.000000	0.0
0.000003	-0.000000	0.0
0.000003	-0.000000	0.0
0.000004	-0.000000	0.0
0.000005	-0.000000	0.0
0.000006	-0.000000	0.0
0.000007	-0.000000	0.0
0.000008	-0.000000	0.0
0.000010	-0.000000	0.0
0.000012	-0.000000	0.0
0.000014	-0.000000	0.0
0.000016	-0.000000	0.0
0.000019	-0.000000	0.0
0.000022	-0.000000	0.0
0.000026	-0.000000	0.0
0.000030	-0.000000	0.0
0.000035	-0.000000	0.0
0.000040	-0.000000	0.0
0.000047	-0.000000	0.0
0.000054	-0.000000	0.0
0.000063	-0.000000	0.0
0.000072	-0.000000	0.0
0.000083	-0.000000	0.0
0.000095	-0.000000	0.0
0.000109	-0.000000	0.0
0.000125	-0.000000	0.0
0.000143	-0.000000	0.0
0.000163	-0.000000	0.0
0.000186	-0.000000	0.0
0.000212	-0.000000	0.0
0.000240	-0.000000	0.0
0.000272	-0.000000	0.0
0.000308	-0.000000	0.0
0.000347	-0.000000	0.0
0.000391	-0.000000	0.0
0.000440	-0.000000	0.0
0.000495	-0.000000	0.0
0.000555	-0.000000	0.0
0.000621	-0.000000	0.0
0.000695	-0.000000	0.0
0.000775	-0.000000	0.0
0.000864	-0.000000	0.0
0.000962	-0.000000	0.0
0.001069	-0.000000	0.0
0.001187	-0.000000	0.0
0.001316	-0.000001	0.0
0.001457	-0.000001	0.0
0.001611	-0.000001	0.0
0.001779	-0.000001	0.0
0.001962	-0.000001	0.0
0.002161	-0.000001	0.0
0.002379	-0.000001	0.0
0.002616	-0.000001	0.0
0.002873	-0.000001	0.0
0.003154	-0.000001	0.0
0.003458	-0.000001	0.0