# vtk DataFile Version 3.0
Header
ASCII
DATASET RECTILINEAR_GRID
DIMENSIONS 98 98 1
X_COORDINATES 98 double
0.030000 0.050000 0.070000 0.090000 0.110000 0.130000 0.150000 0.170000 0.190000 0.210000 0.230000 0.250000 0.270000 0.290000 0.310000 0.330000 0.350000 0.370000 0.390000 0.410000 0.430000 0.450000 0.470000 0.490000 0.510000 0.530000 0.550000 0.570000 0.590000 0.610000 0.630000 0.650000 0.670000 0.690000 0.710000 0.730000 0.750000 0.770000 0.790000 0.810000 0.830000 0.850000 0.870000 0.890000 0.910000 0.930000 0.950000 0.970000 0.990000 1.010000 1.030000 1.050000 1.070000 1.090000 1.110000 1.130000 1.150000 1.170000 1.190000 1.210000 1.230000 1.250000 1.270000 1.290000 1.310000 1.330000 1.350000 1.370000 1.390000 1.410000 1.430000 1.450000 1.470000 1.490000 1.510000 1.530000 1.550000 1.570000 1.590000 1.610000 1.630000 1.650000 1.670000 1.690000 1.710000 1.730000 1.750000 1.770000 1.790000 1.810000 1.830000 1.850000 1.870000 1.890000 1.910000 1.930000 1.950000 1.970000 
Y_COORDINATES 98 double
0.030000 0.050000 0.070000 0.090000 0.110000 0.130000 0.150000 0.170000 0.190000 0.210000 0.230000 0.250000 0.270000 0.290000 0.310000 0.330000 0.350000 0.370000 0.390000 0.410000 0.430000 0.450000 0.470000 0.490000 0.510000 0.530000 0.550000 0.570000 0.590000 0.610000 0.630000 0.650000 0.670000 0.690000 0.710000 0.730000 0.750000 0.770000 0.790000 0.810000 0.830000 0.850000 0.870000 0.890000 0.910000 0.930000 0.950000 0.970000 0.990000 1.010000 1.030000 1.050000 1.070000 1.090000 1.110000 1.130000 1.150000 1.170000 1.190000 1.210000 1.230000 1.250000 1.270000 1.290000 1.310000 1.330000 1.350000 1.370000 1.390000 1.410000 1.430000 1.450000 1.470000 1.490000 1.510000 1.530000 1.550000 1.570000 1.590000 1.610000 1.630000 1.650000 1.670000 1.690000 1.710000 1.730000 1.750000 1.770000 1.790000 1.810000 1.830000 1.850000 1.870000 1.890000 1.910000 1.930000 1.950000 1.970000 
Z_COORDINATES 1 double
0.0
POINT_DATA 9604
VECTORS velocity double
-0.000003	-0.000003	0.0
0.000001	0.000001	0.0
0.000003	0.000002	0.0
0.000003	0.000001	0.0
0.000002	0.000000	0.0
0.000002	-0.000000	0.0
0.000002	-0.000000	0.0
0.000003	-0.000000	0.0
0.000003	-0.000000	0.0
0.000004	-0.000000	0.0
0.000004	-0.000000	0.0
0.000005	-0.000000	0.0
0.000005	-0.000000	0.0
0.000006	-0.000000	0.0
0.000007	-0.000000	0.0
0.000008	-0.000000	0.0
0.000009	-0.000000	0.0
0.000010	-0.000000	0.0
0.000011	-0.000000	0.0
0.000012	-0.000000	0.0
0.000013	-0.000000	0.0
0.000015	-0.000000	0.0
0.000016	-0.000000	0.0
0.000018	-0.000000	0.0
0.000020	-0.000000	0.0
0.000022	-0.000000	0.0
0.000024	-0.000000	0.0
0.000027	-0.000000	0.0
0.000030	-0.000000	0.0
0.000032	-0.000000	0.0
0.000036	-0.000000	0.0
0.000039	-0.000000	0.0
0.000043	-0.000000	0.0
0.000047	-0.000000	0.0
0.000052	-0.000000	0.0
0.000056	-0.000000	0.0
0.000062	-0.000000	0.0
0.000067	-0.000000	0.0
0.000073	-0.000000	0.0
0.000080	-0.000000	0.0
0.000087	-0.000000	0.0
0.000095	-0.000000	0.0
0.000103	-0.000000	0.0
0.000112	-0.000000	0.0
0.000121	-0.000000	0.0
0.000132	-0.000000	0.0
0.000143	-0.000000	0.0
0.000155	-0.000000	0.0
0.000168	-0.000000	0.0
0.000181	0.000000	0.0
0.000196	0.000000	0.0
0.000212	0.000000	0.0
0.000229	0.000000	0.0
0.000248	0.000000	0.0
0.000268	0.000000	0.0
0.000289	0.000000	0.0
0.000312	0.000000	0.0
0.000337	0.000000	0.0
0.000364	0.000000	0.0
0.000393	0.000000	0.0
0.000424	0.000001	0.0
0.000457	0.000001	0.0
0.000494	0.000001	0.0
0.000533	0.000001	0.0
0.000576	0.000001	0.0
0.000623	0.000001	0.0
0.000674	0.000001	0.0
0.000730	0.000001	0.0
0.000790	0.000001	0.0
0.000857	0.000002	0.0
0.000931	0.000002	0.0
0.001012	0.000002	0.0
0.001101	0.000002	0.0
0.001201	0.000002	0.0
0.001312	0.000003	0.0
0.001437	0.000003	0.0
0.001577	0.000003	0.0
0.001736	0.000004	0.0
0.001917	0.000004	0.0
0.002125	0.000004	0.0
0.002364	0.000005	0.0
0.002642	0.000005	0.0
0.002967	0.000006	0.0
0.003353	0.000007	0.0
0.003814	0.000007	0.0
0.004372	0.000008	0.0
0.005056	0.000009	0.0
0.005910	0.000009	0.0
0.006993	0.000010	0.0
0.008398	0.000011	0.0
0.010268	0.000011	0.0
0.012833	0.000012	0.0
0.016492	0.000013	0.0
0.021969	0.000014	0.0
0.030698	0.000015	0.0
0.045798	0.000015	0.0
0.074990	0.000012	0.0
0.141650	0.000006	0.0
0.000002	-0.000000	0.0
0.000004	0.000002	0.0
0.000004	0.000002	0.0
0.000003	0.000001	0.0
0.000003	-0.000000	0.0
0.000003	-0.000001	0.0
0.000004	-0.000001	0.0
0.000004	-0.000001	0.0
0.000005	-0.000001	0.0
0.000006	-0.000001	0.0
0.000007	-0.000001	0.0
0.000008	-0.000001	0.0
0.000009	-0.000001	0.0
0.000010	-0.000001	0.0
0.000011	-0.000001	0.0
0.000013	-0.000001	0.0
0.000014	-0.000001	0.0
0.000016	-0.000001	0.0
0.000018	-0.000001	0.0
0.000020	-0.000001	0.0
0.000022	-0.000001	0.0
0.000024	-0.000001	0.0
0.000027	-0.000001	0.0
0.000030	-0.000001	0.0
0.000033	-0.000001	0.0
0.000037	-0.000001	0.0
0.000040	-0.000001	0.0
0.000044	-0.000001	0.0
0.000049	-0.000001	0.0
0.000054	-0.000001	0.0
0.000059	-0.000001	0.0
0.000065	-0.000001	0.0
0.000071	-0.000001	0.0
0.000078	-0.000001	0.0
0.000086	-0.000001	0.0
0.000094	-0.000001	0.0
0.000102	-0.000001	0.0
0.000112	-0.000001	0.0
0.000122	-0.000001	0.0
0.000133	-0.000001	0.0
0.000145	-0.000001	0.0
0.000157	-0.000001	0.0
0.000171	-0.000001	0.0
0.000186	-0.000001	0.0
0.000202	-0.000001	0.0
0.000219	-0.000001	0.0
0.000238	-0.000001	0.0
0.000257	-0.000001	0.0
0.000279	-0.000000	0.0
0.000302	-0.000000	0.0
0.000326	-0.000000	0.0
0.000353	-0.000000	0.0
0.000381	-0.000000	0.0
0.000412	-0.000000	0.0
0.000445	-0.000000	0.0
0.000481	-0.000000	0.0
0.000519	0.000000	0.0
0.000560	0.000000	0.0
0.000604	0.000000	0.0
0.000652	0.000000	0.0
0.000704	0.000001	0.0
0.000760	0.000001	0.0
0.000820	0.000001	0.0
0.000886	0.000001	0.0
0.000957	0.000001	0.0
0.001035	0.000001	0.0
0.001119	0.000002	0.0
0.001211	0.000002	0.0
0.001312	0.000002	0.0
0.001422	0.000002	0.0
0.001543	0.000003	0.0
0.001677	0.000003	0.0
0.001826	0.000003	0.0
0.001990	0.000004	0.0
0.002174	0.000004	0.0
0.002379	0.000005	0.0
0.002610	0.000005	0.0
0.002872	0.000006	0.0
0.003169	0.000006	0.0
0.003509	0.000007	0.0
0.003900	0.000008	0.0
0.004354	0.000009	0.0
0.004885	0.000009	0.0
0.005512	0.000010	0.0
0.006259	0.000011	0.0
0.007160	0.000012	0.0
0.008260	0.000014	0.0
0.009624	0.000015	0.0
0.011342	0.000016	0.0
0.013550	0.000017	0.0
0.016452	0.000018	0.0
0.020368	0.000019	0.0
0.025825	0.000021	0.0
0.033729	0.000022	0.0
0.045731	0.000023	0.0
0.065079	0.000023	0.0
0.098925	0.000019	0.0
0.166883	0.000011	0.0
0.000003	0.000001	0.0
0.000004	0.000002	0.0
0.000004	0.000001	0.0
0.000004	0.000000	0.0
0.000004	-0.000000	0.0
0.000005	-0.000001	0.0
0.000005	-0.000001	0.0
0.000006	-0.000001	0.0
0.000007	-0.000001	0.0
0.000008	-0.000001	0.0
0.000010	-0.000001	0.0
0.000011	-0.000001	0.0
0.000012	-0.000001	0.0
0.000014	-0.000001	0.0
0.000016	-0.000001	0.0
0.000018	-0.000001	0.0
0.000020	-0.000001	0.0
0.000022	-0.000001	0.0
0.000025	-0.000001	0.0
0.000028	-0.000001	0.0
0.000031	-0.000001	0.0
0.000034	-0.000001	0.0
0.000038	-0.000001	0.0
0.000042	-0.000001	0.0
0.000046	-0.000001	0.0
0.000051	-0.000001	0.0
0.000057	-0.000001	0.0
0.000062	-0.000001	0.0
0.000069	-0.000001	0.0
0.000076	-0.000001	0.0
0.000083	-0.000001	0.0
0.000091	-0.000001	0.0
0.000100	-0.000001	0.0
0.000110	-0.000001	0.0
0.000120	-0.000001	0.0
0.000131	-0.000001	0.0
0.000143	-0.000001	0.0
0.000156	-0.000001	0.0
0.000170	-0.000001	0.0
0.000186	-0.000001	0.0
0.000202	-0.000001	0.0
0.000220	-0.000001	0.0
0.000239	-0.000001	0.0
0.000260	-0.000001	0.0
0.000282	-0.000000	0.0
0.000306	-0.000000	0.0
0.000332	-0.000000	0.0
0.000359	-0.000000	0.0
0.000389	-0.000000	0.0
0.000421	-0.000000	0.0
0.000456	-0.000000	0.0
0.000493	-0.000000	0.0
0.000532	0.000000	0.0
0.000575	0.000000	0.0
0.000621	0.000000	0.0
0.000670	0.000000	0.0
0.000724	0.000000	0.0
0.000781	0.000001	0.0
0.000843	0.000001	0.0
0.000909	0.000001	0.0
0.000981	0.000001	0.0
0.001059	0.000001	0.0
0.001143	0.000002	0.0
0.001234	0.000002	0.0
0.001333	0.000002	0.0
0.001441	0.000002	0.0
0.001558	0.000003	0.0
0.001685	0.000003	0.0
0.001825	0.000003	0.0
0.001978	0.000004	0.0
0.002146	0.000004	0.0
0.002331	0.000004	0.0
0.002536	0.000005	0.0
0.002763	0.000005	0.0
0.003016	0.000006	0.0
0.003299	0.000007	0.0
0.003617	0.000007	0.0
0.003976	0.000008	0.0
0.004383	0.000009	0.0
0.004848	0.000010	0.0
0.005382	0.000011	0.0
0.006000	0.000012	0.0
0.006720	0.000013	0.0
0.007567	0.000015	0.0
0.008573	0.000016	0.0
0.009779	0.000018	0.0
0.011243	0.000019	0.0
0.013044	0.000021	0.0
0.015293	0.000022	0.0
0.018151	0.000023	0.0
0.021852	0.000025	0.0
0.026758	0.000026	0.0
0.033435	0.000028	0.0
0.042815	0.000030	0.0
0.056514	0.000031	0.0
0.077555	0.000031	0.0
0.112364	0.000026	0.0
0.178526	0.000016	0.0
0.000002	0.000001	0.0
0.000003	0.000001	0.0
0.000004	0.000001	0.0
0.000004	0.000000	0.0
0.000005	-0.000000	0.0
0.000006	-0.000000	0.0
0.000007	-0.000001	0.0
0.000008	-0.000001	0.0
0.000010	-0.000001	0.0
0.000011	-0.000001	0.0
0.000013	-0.000001	0.0
0.000014	-0.000001	0.0
0.000016	-0.000001	0.0
0.000018	-0.000001	0.0
0.000020	-0.000001	0.0
0.000023	-0.000001	0.0
0.000026	-0.000001	0.0
0.000029	-0.000001	0.0
0.000032	-0.000001	0.0
0.000036	-0.000001	0.0
0.000040	-0.000001	0.0
0.000044	-0.000001	0.0
0.000049	-0.000001	0.0
0.000054	-0.000001	0.0
0.000060	-0.000001	0.0
0.000066	-0.000001	0.0
0.000073	-0.000001	0.0
0.000080	-0.000001	0.0
0.000088	-0.000001	0.0
0.000097	-0.000001	0.0
0.000107	-0.000001	0.0
0.000117	-0.000001	0.0
0.000128	-0.000001	0.0
0.000141	-0.000001	0.0
0.000154	-0.000001	0.0
0.000168	-0.000001	0.0
0.000184	-0.000000	0.0
0.000201	-0.000000	0.0
0.000219	-0.000000	0.0
0.000238	-0.000000	0.0
0.000259	-0.000000	0.0
0.000282	-0.000000	0.0
0.000307	-0.000000	0.0
0.000333	-0.000000	0.0
0.000362	-0.000000	0.0
0.000392	-0.000000	0.0
0.000425	-0.000000	0.0
0.000461	0.000000	0.0
0.000499	0.000000	0.0
0.000539	0.000000	0.0
0.000583	0.000000	0.0
0.000631	0.000000	0.0
0.000682	0.000001	0.0
0.000736	0.000001	0.0
0.000795	0.000001	0.0
0.000858	0.000001	0.0
0.000926	0.000001	0.0
0.000999	0.000001	0.0
0.001078	0.000001	0.0
0.001163	0.000002	0.0
0.001255	0.000002	0.0
0.001354	0.000002	0.0
0.001461	0.000002	0.0
0.001577	0.000003	0.0
0.001703	0.000003	0.0
0.001839	0.000003	0.0
0.001988	0.000004	0.0
0.002150	0.000004	0.0
0.002327	0.000005	0.0
0.002521	0.000005	0.0
0.002734	0.000006	0.0
0.002968	0.000006	0.0
0.003227	0.000007	0.0
0.003513	0.000008	0.0
0.003832	0.000008	0.0
0.004189	0.000009	0.0
0.004588	0.000010	0.0
0.005038	0.000011	0.0
0.005548	0.000012	0.0
0.006128	0.000013	0.0
0.006793	0.000015	0.0
0.007559	0.000016	0.0
0.008450	0.000018	0.0
0.009493	0.000019	0.0
0.010724	0.000021	0.0
0.012193	0.000023	0.0
0.013964	0.000025	0.0
0.016124	0.000026	0.0
0.018796	0.000028	0.0
0.022151	0.000030	0.0
0.026435	0.000032	0.0
0.032017	0.000033	0.0
0.039458	0.000035	0.0
0.049658	0.000037	0.0
0.064135	0.000039	0.0
0.085693	0.000038	0.0
0.120304	0.000033	0.0
0.184644	0.000021	0.0
0.000002	0.000001	0.0
0.000003	0.000000	0.0
0.000004	0.000000	0.0
0.000005	0.000000	0.0
0.000006	-0.000000	0.0
0.000007	-0.000000	0.0
0.000009	-0.000000	0.0
0.000010	-0.000000	0.0
0.000012	-0.000000	0.0
0.000014	-0.000000	0.0
0.000015	-0.000000	0.0
0.000018	-0.000000	0.0
0.000020	-0.000001	0.0
0.000022	-0.000001	0.0
0.000025	-0.000001	0.0
0.000028	-0.000001	0.0
0.000031	-0.000001	0.0
0.000035	-0.000001	0.0
0.000039	-0.000001	0.0
0.000044	-0.000001	0.0
0.000048	-0.000001	0.0
0.000054	-0.000001	0.0
0.000060	-0.000001	0.0
0.000066	-0.000001	0.0
0.000073	-0.000001	0.0
0.000080	-0.000001	0.0
0.000089	-0.000000	0.0
0.000098	-0.000000	0.0
0.000108	-0.000000	0.0
0.000118	-0.000000	0.0
0.000130	-0.000000	0.0
0.000143	-0.000000	0.0
0.000156	-0.000000	0.0
0.000171	-0.000000	0.0
0.000187	-0.000000	0.0
0.000205	-0.000000	0.0
0.000224	-0.000000	0.0
0.000244	-0.000000	0.0
0.000266	-0.000000	0.0
0.000290	-0.000000	0.0
0.000316	-0.000000	0.0
0.000344	0.000000	0.0
0.000373	0.000000	0.0
0.000405	0.000000	0.0
0.000440	0.000000	0.0
0.000477	0.000000	0.0
0.000517	0.000000	0.0
0.000560	0.000000	0.0
0.000606	0.000001	0.0
0.000656	0.000001	0.0
0.000710	0.000001	0.0
0.000767	0.000001	0.0
0.000828	0.000001	0.0
0.000895	0.000001	0.0
0.000966	0.000001	0.0
0.001042	0.000002	0.0
0.001125	0.000002	0.0
0.001213	0.000002	0.0
0.001309	0.000002	0.0
0.001412	0.000002	0.0
0.001523	0.000003	0.0
0.001642	0.000003	0.0
0.001772	0.000003	0.0
0.001912	0.000004	0.0
0.002064	0.000004	0.0
0.002228	0.000004	0.0
0.002407	0.000005	0.0
0.002602	0.000005	0.0
0.002815	0.000006	0.0
0.003048	0.000007	0.0
0.003304	0.000007	0.0
0.003585	0.000008	0.0
0.003895	0.000009	0.0
0.004238	0.000009	0.0
0.004618	0.000010	0.0
0.005043	0.000011	0.0
0.005518	0.000012	0.0
0.006052	0.000014	0.0
0.006655	0.000015	0.0
0.007340	0.000016	0.0
0.008123	0.000018	0.0
0.009021	0.000020	0.0
0.010061	0.000021	0.0
0.011274	0.000023	0.0
0.012698	0.000025	0.0
0.014386	0.000027	0.0
0.016407	0.000030	0.0
0.018852	0.000032	0.0
0.021847	0.000034	0.0
0.025566	0.000036	0.0
0.030255	0.000038	0.0
0.036274	0.000040	0.0
0.044164	0.000042	0.0
0.054777	0.000044	0.0
0.069550	0.000045	0.0
0.091135	0.000044	0.0
0.125264	0.000038	0.0
0.188205	0.000026	0.0
0.000002	0.000000	0.0
0.000003	0.000000	0.0
0.000005	0.000000	0.0
0.000006	-0.000000	0.0
0.000007	-0.000000	0.0
0.000009	-0.000000	0.0
0.000010	-0.000000	0.0
0.000012	-0.000000	0.0
0.000014	-0.000000	0.0
0.000016	-0.000000	0.0
0.000018	-0.000000	0.0
0.000021	-0.000000	0.0
0.000023	-0.000000	0.0
0.000026	-0.000000	0.0
0.000030	-0.000000	0.0
0.000033	-0.000000	0.0
0.000037	-0.000000	0.0
0.000041	-0.000000	0.0
0.000046	-0.000000	0.0
0.000051	-0.000000	0.0
0.000057	-0.000000	0.0
0.000063	-0.000000	0.0
0.000070	-0.000000	0.0
0.000078	-0.000000	0.0
0.000086	-0.000000	0.0
0.000095	-0.000000	0.0
0.000105	-0.000000	0.0
0.000115	-0.000000	0.0
0.000127	-0.000000	0.0
0.000139	-0.000000	0.0
0.000153	-0.000000	0.0
0.000168	-0.000000	0.0
0.000184	-0.000000	0.0
0.000202	-0.000000	0.0
0.000221	-0.000000	0.0
0.000241	-0.000000	0.0
0.000263	-0.000000	0.0
0.000287	-0.000000	0.0
0.000313	0.000000	0.0
0.000341	0.000000	0.0
0.000371	0.000000	0.0
0.000404	0.000000	0.0
0.000439	0.000000	0.0
0.000477	0.000000	0.0
0.000517	0.000000	0.0
0.000561	0.000001	0.0
0.000608	0.000001	0.0
0.000658	0.000001	0.0
0.000713	0.000001	0.0
0.000771	0.000001	0.0
0.000833	0.000001	0.0
0.000901	0.000001	0.0
0.000973	0.000001	0.0
0.001050	0.000002	0.0
0.001134	0.000002	0.0
0.001223	0.000002	0.0
0.001320	0.000002	0.0
0.001423	0.000003	0.0
0.001535	0.000003	0.0
0.001655	0.000003	0.0
0.001784	0.000003	0.0
0.001924	0.000004	0.0
0.002075	0.000004	0.0
0.002238	0.000005	0.0
0.002415	0.000005	0.0
0.002607	0.000005	0.0
0.002815	0.000006	0.0
0.003041	0.000007	0.0
0.003288	0.000007	0.0
0.003558	0.000008	0.0
0.003854	0.000009	0.0
0.004179	0.000009	0.0
0.004537	0.000010	0.0
0.004932	0.000011	0.0
0.005370	0.000012	0.0
0.005857	0.000013	0.0
0.006402	0.000015	0.0
0.007012	0.000016	0.0
0.007700	0.000018	0.0
0.008478	0.000019	0.0
0.009364	0.000021	0.0
0.010379	0.000023	0.0
0.011548	0.000025	0.0
0.012903	0.000027	0.0
0.014488	0.000029	0.0
0.016354	0.000032	0.0
0.018574	0.000034	0.0
0.021238	0.000037	0.0
0.024473	0.000039	0.0
0.028450	0.000041	0.0
0.033409	0.000043	0.0
0.039696	0.000045	0.0
0.047829	0.000047	0.0
0.058624	0.000049	0.0
0.073454	0.000050	0.0
0.094885	0.000049	0.0
0.128523	0.000042	0.0
0.190446	0.000029	0.0
0.000002	0.000000	0.0
0.000004	0.000000	0.0
0.000005	-0.000000	0.0
0.000007	-0.000000	0.0
0.000008	-0.000000	0.0
0.000010	-0.000000	0.0
0.000012	-0.000000	0.0
0.000014	-0.000000	0.0
0.000016	-0.000000	0.0
0.000018	-0.000000	0.0
0.000021	-0.000000	0.0
0.000024	-0.000000	0.0
0.000027	-0.000000	0.0
0.000030	-0.000000	0.0
0.000034	-0.000000	0.0
0.000038	-0.000000	0.0
0.000043	-0.000000	0.0
0.000048	-0.000000	0.0
0.000053	-0.000000	0.0
0.000059	-0.000000	0.0
0.000066	-0.000000	0.0
0.000073	-0.000000	0.0
0.000081	-0.000000	0.0
0.000089	-0.000000	0.0
0.000099	-0.000000	0.0
0.000109	-0.000000	0.0
0.000120	-0.000000	0.0
0.000132	-0.000000	0.0
0.000146	-0.000000	0.0
0.000160	-0.000000	0.0
0.000176	-0.000000	0.0
0.000193	-0.000000	0.0
0.000211	-0.000000	0.0
0.000232	-0.000000	0.0
0.000253	-0.000000	0.0
0.000277	0.000000	0.0
0.000302	0.000000	0.0
0.000330	0.000000	0.0
0.000360	0.000000	0.0
0.000392	0.000000	0.0
0.000426	0.000000	0.0
0.000463	0.000000	0.0
0.000504	0.000000	0.0
0.000547	0.000001	0.0
0.000593	0.000001	0.0
0.000643	0.000001	0.0
0.000697	0.000001	0.0
0.000755	0.000001	0.0
0.000817	0.000001	0.0
0.000883	0.000001	0.0
0.000955	0.000001	0.0
0.001032	0.000002	0.0
0.001114	0.000002	0.0
0.001203	0.000002	0.0
0.001298	0.000002	0.0
0.001400	0.000002	0.0
0.001510	0.000003	0.0
0.001628	0.000003	0.0
0.001755	0.000003	0.0
0.001892	0.000004	0.0
0.002039	0.000004	0.0
0.002198	0.000004	0.0
0.002370	0.000005	0.0
0.002555	0.000005	0.0
0.002755	0.000006	0.0
0.002973	0.000006	0.0
0.003209	0.000007	0.0
0.003465	0.000008	0.0
0.003744	0.000008	0.0
0.004049	0.000009	0.0
0.004382	0.000010	0.0
0.004748	0.000011	0.0
0.005150	0.000012	0.0
0.005594	0.000013	0.0
0.006084	0.000014	0.0
0.006629	0.000015	0.0
0.007236	0.000017	0.0
0.007915	0.000018	0.0
0.008678	0.000020	0.0
0.009539	0.000022	0.0
0.010515	0.000024	0.0
0.011629	0.000026	0.0
0.012907	0.000028	0.0
0.014382	0.000031	0.0
0.016097	0.000033	0.0
0.018106	0.000036	0.0
0.020480	0.000038	0.0
0.023309	0.000041	0.0
0.026716	0.000044	0.0
0.030869	0.000046	0.0
0.036000	0.000048	0.0
0.042442	0.000050	0.0
0.050693	0.000052	0.0
0.061541	0.000054	0.0
0.076320	0.000054	0.0
0.097546	0.000053	0.0
0.130761	0.000046	0.0
0.191942	0.000032	0.0
0.000002	0.000000	0.0
0.000004	-0.000000	0.0
0.000006	-0.000000	0.0
0.000008	-0.000000	0.0
0.000009	-0.000000	0.0
0.000011	-0.000000	0.0
0.000013	-0.000000	0.0
0.000016	-0.000000	0.0
0.000018	-0.000000	0.0
0.000021	-0.000000	0.0
0.000024	-0.000000	0.0
0.000027	-0.000000	0.0
0.000030	-0.000000	0.0
0.000034	-0.000000	0.0
0.000038	-0.000000	0.0
0.000043	-0.000000	0.0
0.000048	-0.000000	0.0
0.000054	-0.000000	0.0
0.000060	-0.000000	0.0
0.000067	-0.000000	0.0
0.000074	-0.000000	0.0
0.000082	-0.000000	0.0
0.000091	-0.000000	0.0
0.000101	-0.000000	0.0
0.000111	-0.000000	0.0
0.000123	-0.000000	0.0
0.000135	-0.000000	0.0
0.000149	-0.000000	0.0
0.000164	-0.000000	0.0
0.000181	-0.000000	0.0
0.000198	-0.000000	0.0
0.000217	-0.000000	0.0
0.000238	-0.000000	0.0
0.000261	0.000000	0.0
0.000285	0.000000	0.0
0.000312	0.000000	0.0
0.000341	0.000000	0.0
0.000372	0.000000	0.0
0.000405	0.000000	0.0
0.000441	0.000000	0.0
0.000480	0.000000	0.0
0.000522	0.000001	0.0
0.000567	0.000001	0.0
0.000615	0.000001	0.0
0.000668	0.000001	0.0
0.000724	0.000001	0.0
0.000784	0.000001	0.0
0.000849	0.000001	0.0
0.000918	0.000001	0.0
0.000993	0.000002	0.0
0.001073	0.000002	0.0
0.001160	0.000002	0.0
0.001252	0.000002	0.0
0.001351	0.000002	0.0
0.001458	0.000003	0.0
0.001572	0.000003	0.0
0.001695	0.000003	0.0
0.001827	0.000004	0.0
0.001969	0.000004	0.0
0.002122	0.000004	0.0
0.002286	0.000005	0.0
0.002463	0.000005	0.0
0.002655	0.000006	0.0
0.002861	0.000006	0.0
0.003084	0.000007	0.0
0.003326	0.000007	0.0
0.003588	0.000008	0.0
0.003872	0.000009	0.0
0.004181	0.000009	0.0
0.004519	0.000010	0.0
0.004887	0.000011	0.0
0.005290	0.000012	0.0
0.005733	0.000013	0.0
0.006221	0.000015	0.0
0.006759	0.000016	0.0
0.007356	0.000017	0.0
0.008019	0.000019	0.0
0.008759	0.000020	0.0
0.009588	0.000022	0.0
0.010520	0.000024	0.0
0.011575	0.000026	0.0
0.012773	0.000029	0.0
0.014142	0.000031	0.0
0.015715	0.000034	0.0
0.017535	0.000037	0.0
0.019656	0.000039	0.0
0.022146	0.000042	0.0
0.025095	0.000045	0.0
0.028624	0.000048	0.0
0.032893	0.000050	0.0
0.038128	0.000052	0.0
0.044651	0.000054	0.0
0.052947	0.000056	0.0
0.063781	0.000058	0.0
0.078466	0.000058	0.0
0.099487	0.000056	0.0
0.132355	0.000049	0.0
0.192989	0.000034	0.0
0.000003	-0.000000	0.0
0.000005	-0.000000	0.0
0.000006	-0.000000	0.0
0.000008	-0.000000	0.0
0.000010	-0.000000	0.0
0.000013	-0.000000	0.0
0.000015	-0.000000	0.0
0.000017	-0.000000	0.0
0.000020	-0.000000	0.0
0.000023	-0.000000	0.0
0.000026	-0.000000	0.0
0.000030	-0.000000	0.0
0.000034	-0.000000	0.0
0.000038	-0.000000	0.0
0.000043	-0.000000	0.0
0.000048	-0.000000	0.0
0.000054	-0.000000	0.0
0.000060	-0.000000	0.0
0.000067	-0.000000	0.0
0.000074	-0.000000	0.0
0.000082	-0.000000	0.0
0.000091	-0.000000	0.0
0.000101	-0.000000	0.0
0.000112	-0.000000	0.0
0.000124	-0.000000	0.0
0.000137	-0.000000	0.0
0.000151	-0.000000	0.0
0.000166	-0.000000	0.0
0.000182	-0.000000	0.0
0.000201	-0.000000	0.0
0.000220	-0.000000	0.0
0.000242	0.000000	0.0
0.000265	0.000000	0.0
0.000290	0.000000	0.0
0.000317	0.000000	0.0
0.000346	0.000000	0.0
0.000378	0.000000	0.0
0.000413	0.000000	0.0
0.000450	0.000000	0.0
0.000490	0.000001	0.0
0.000533	0.000001	0.0
0.000579	0.000001	0.0
0.000629	0.000001	0.0
0.000683	0.000001	0.0
0.000740	0.000001	0.0
0.000803	0.000001	0.0
0.000869	0.000001	0.0
0.000941	0.000001	0.0
0.001018	0.000002	0.0
0.001100	0.000002	0.0
0.001189	0.000002	0.0
0.001284	0.000002	0.0
0.001386	0.000002	0.0
0.001496	0.000003	0.0
0.001613	0.000003	0.0
0.001739	0.000003	0.0
0.001875	0.000004	0.0
0.002020	0.000004	0.0
0.002176	0.000004	0.0
0.002344	0.000005	0.0
0.002525	0.000005	0.0
0.002720	0.000006	0.0
0.002930	0.000006	0.0
0.003156	0.000007	0.0
0.003400	0.000007	0.0
0.003665	0.000008	0.0
0.003951	0.000009	0.0
0.004261	0.000010	0.0
0.004599	0.000011	0.0
0.004966	0.000011	0.0
0.005367	0.000012	0.0
0.005805	0.000014	0.0
0.006285	0.000015	0.0
0.006813	0.000016	0.0
0.007395	0.000017	0.0
0.008037	0.000019	0.0
0.008750	0.000021	0.0
0.009544	0.000022	0.0
0.010430	0.000024	0.0
0.011425	0.000026	0.0
0.012545	0.000029	0.0
0.013814	0.000031	0.0
0.015258	0.000034	0.0
0.016910	0.000037	0.0
0.018813	0.000040	0.0
0.021020	0.000043	0.0
0.023597	0.000046	0.0
0.026633	0.000049	0.0
0.030243	0.000051	0.0
0.034586	0.000054	0.0
0.039880	0.000056	0.0
0.046438	0.000058	0.0
0.054735	0.000060	0.0
0.065524	0.000061	0.0
0.080101	0.000061	0.0
0.100938	0.000059	0.0
0.133525	0.000051	0.0
0.193747	0.000036	0.0
0.000003	-0.000000	0.0
0.000005	-0.000000	0.0
0.000007	-0.000000	0.0
0.000009	-0.000000	0.0
0.000011	-0.000000	0.0
0.000014	-0.000000	0.0
0.000016	-0.000000	0.0
0.000019	-0.000000	0.0
0.000022	-0.000000	0.0
0.000025	-0.000000	0.0
0.000029	-0.000000	0.0
0.000033	-0.000000	0.0
0.000037	-0.000000	0.0
0.000042	-0.000000	0.0
0.000047	-0.000000	0.0
0.000053	-0.000000	0.0
0.000059	-0.000000	0.0
0.000066	-0.000000	0.0
0.000073	-0.000000	0.0
0.000081	-0.000000	0.0
0.000090	-0.000000	0.0
0.000100	-0.000000	0.0
0.000111	-0.000000	0.0
0.000123	-0.000000	0.0
0.000136	-0.000000	0.0
0.000150	-0.000000	0.0
0.000165	-0.000000	0.0
0.000182	-0.000000	0.0
0.000200	0.000000	0.0
0.000220	0.000000	0.0
0.000242	0.000000	0.0
0.000265	0.000000	0.0
0.000291	0.000000	0.0
0.000318	0.000000	0.0
0.000348	0.000000	0.0
0.000380	0.000000	0.0
0.000415	0.000000	0.0
0.000453	0.000000	0.0
0.000493	0.000001	0.0
0.000537	0.000001	0.0
0.000584	0.000001	0.0
0.000635	0.000001	0.0
0.000690	0.000001	0.0
0.000748	0.000001	0.0
0.000811	0.000001	0.0
0.000879	0.000001	0.0
0.000952	0.000002	0.0
0.001031	0.000002	0.0
0.001115	0.000002	0.0
0.001205	0.000002	0.0
0.001302	0.000002	0.0
0.001405	0.000003	0.0
0.001517	0.000003	0.0
0.001636	0.000003	0.0
0.001764	0.000003	0.0
0.001901	0.000004	0.0
0.002049	0.000004	0.0
0.002207	0.000004	0.0
0.002377	0.000005	0.0
0.002559	0.000005	0.0
0.002755	0.000006	0.0
0.002967	0.000006	0.0
0.003194	0.000007	0.0
0.003439	0.000008	0.0
0.003703	0.000008	0.0
0.003989	0.000009	0.0
0.004298	0.000010	0.0
0.004633	0.000011	0.0
0.004996	0.000012	0.0
0.005391	0.000013	0.0
0.005822	0.000014	0.0
0.006292	0.000015	0.0
0.006806	0.000016	0.0
0.007369	0.000017	0.0
0.007989	0.000019	0.0
0.008673	0.000021	0.0
0.009430	0.000022	0.0
0.010270	0.000024	0.0
0.011207	0.000026	0.0
0.012254	0.000029	0.0
0.013430	0.000031	0.0
0.014757	0.000034	0.0
0.016262	0.000036	0.0
0.017978	0.000039	0.0
0.019945	0.000042	0.0
0.022217	0.000046	0.0
0.024858	0.000049	0.0
0.027954	0.000052	0.0
0.031619	0.000055	0.0
0.036005	0.000057	0.0
0.041327	0.000059	0.0
0.047892	0.000061	0.0
0.056167	0.000063	0.0
0.066896	0.000064	0.0
0.081369	0.000064	0.0
0.102045	0.000061	0.0
0.134408	0.000053	0.0
0.194314	0.000038	0.0
0.000003	-0.000000	0.0
0.000005	-0.000000	0.0
0.000008	-0.000000	0.0
0.000010	-0.000000	0.0
0.000012	-0.000000	0.0
0.000015	-0.000000	0.0
0.000018	-0.000000	0.0
0.000021	-0.000000	0.0
0.000024	-0.000000	0.0
0.000028	-0.000000	0.0
0.000032	-0.000000	0.0
0.000036	-0.000000	0.0
0.000040	-0.000000	0.0
0.000046	-0.000000	0.0
0.000051	-0.000000	0.0
0.000057	-0.000000	0.0
0.000064	-0.000000	0.0
0.000071	-0.000000	0.0
0.000080	-0.000000	0.0
0.000089	-0.000000	0.0
0.000098	-0.000000	0.0
0.000109	-0.000000	0.0
0.000121	-0.000000	0.0
0.000134	-0.000000	0.0
0.000148	-0.000000	0.0
0.000163	-0.000000	0.0
0.000180	0.000000	0.0
0.000198	0.000000	0.0
0.000218	0.000000	0.0
0.000239	0.000000	0.0
0.000263	0.000000	0.0
0.000288	0.000000	0.0
0.000316	0.000000	0.0
0.000346	0.000000	0.0
0.000378	0.000000	0.0
0.000413	0.000000	0.0
0.000451	0.000001	0.0
0.000492	0.000001	0.0
0.000536	0.000001	0.0
0.000583	0.000001	0.0
0.000634	0.000001	0.0
0.000689	0.000001	0.0
0.000749	0.000001	0.0
0.000812	0.000001	0.0
0.000881	0.000001	0.0
0.000954	0.000002	0.0
0.001033	0.000002	0.0
0.001118	0.000002	0.0
0.001209	0.000002	0.0
0.001306	0.000002	0.0
0.001411	0.000003	0.0
0.001523	0.000003	0.0
0.001643	0.000003	0.0
0.001772	0.000003	0.0
0.001910	0.000004	0.0
0.002058	0.000004	0.0
0.002216	0.000004	0.0
0.002387	0.000005	0.0
0.002570	0.000005	0.0
0.002766	0.000006	0.0
0.002977	0.000006	0.0
0.003203	0.000007	0.0
0.003447	0.000008	0.0
0.003710	0.000008	0.0
0.003993	0.000009	0.0
0.004299	0.000010	0.0
0.004629	0.000011	0.0
0.004986	0.000012	0.0
0.005373	0.000013	0.0
0.005794	0.000014	0.0
0.006251	0.000015	0.0
0.006750	0.000016	0.0
0.007294	0.000017	0.0
0.007890	0.000019	0.0
0.008545	0.000020	0.0
0.009265	0.000022	0.0
0.010060	0.000024	0.0
0.010941	0.000026	0.0
0.011919	0.000028	0.0
0.013011	0.000031	0.0
0.014233	0.000033	0.0
0.015609	0.000036	0.0
0.017163	0.000039	0.0
0.018928	0.000042	0.0
0.020946	0.000045	0.0
0.023265	0.000048	0.0
0.025952	0.000051	0.0
0.029089	0.000055	0.0
0.032787	0.000058	0.0
0.037197	0.000060	0.0
0.042528	0.000062	0.0
0.049083	0.000064	0.0
0.057324	0.000066	0.0
0.067991	0.000067	0.0
0.082367	0.000066	0.0
0.102907	0.000063	0.0
0.135088	0.000055	0.0
0.194748	0.000039	0.0
0.000003	-0.000000	0.0
0.000006	-0.000000	0.0
0.000008	-0.000000	0.0
0.000011	-0.000000	0.0
0.000013	-0.000000	0.0
0.000016	-0.000000	0.0
0.000019	-0.000000	0.0
0.000023	-0.000000	0.0
0.000026	-0.000000	0.0
0.000030	-0.000000	0.0
0.000034	-0.000000	0.0
0.000039	-0.000000	0.0
0.000044	-0.000000	0.0
0.000049	-0.000000	0.0
0.000055	-0.000000	0.0
0.000062	-0.000000	0.0
0.000069	-0.000000	0.0
0.000077	-0.000000	0.0
0.000086	-0.000000	0.0
0.000096	-0.000000	0.0
0.000106	-0.000000	0.0
0.000118	-0.000000	0.0
0.000130	-0.000000	0.0
0.000144	0.000000	0.0
0.000159	0.000000	0.0
0.000176	0.000000	0.0
0.000194	0.000000	0.0
0.000214	0.000000	0.0
0.000235	0.000000	0.0
0.000258	0.000000	0.0
0.000283	0.000000	0.0
0.000311	0.000000	0.0
0.000341	0.000000	0.0
0.000373	0.000000	0.0
0.000408	0.000001	0.0
0.000445	0.000001	0.0
0.000486	0.000001	0.0
0.000530	0.000001	0.0
0.000577	0.000001	0.0
0.000628	0.000001	0.0
0.000683	0.000001	0.0
0.000742	0.000001	0.0
0.000806	0.000001	0.0
0.000874	0.000001	0.0
0.000948	0.000002	0.0
0.001027	0.000002	0.0
0.001111	0.000002	0.0
0.001202	0.000002	0.0
0.001300	0.000002	0.0
0.001404	0.000003	0.0
0.001516	0.000003	0.0
0.001636	0.000003	0.0
0.001765	0.000003	0.0
0.001903	0.000004	0.0
0.002050	0.000004	0.0
0.002208	0.000004	0.0
0.002378	0.000005	0.0
0.002560	0.000005	0.0
0.002755	0.000006	0.0
0.002964	0.000006	0.0
0.003189	0.000007	0.0
0.003430	0.000007	0.0
0.003689	0.000008	0.0
0.003968	0.000009	0.0
0.004269	0.000010	0.0
0.004593	0.000010	0.0
0.004943	0.000011	0.0
0.005321	0.000012	0.0
0.005730	0.000013	0.0
0.006173	0.000015	0.0
0.006655	0.000016	0.0
0.007180	0.000017	0.0
0.007751	0.000019	0.0
0.008376	0.000020	0.0
0.009061	0.000022	0.0
0.009813	0.000024	0.0
0.010641	0.000026	0.0
0.011557	0.000028	0.0
0.012572	0.000030	0.0
0.013701	0.000032	0.0
0.014962	0.000035	0.0
0.016376	0.000038	0.0
0.017969	0.000041	0.0
0.019774	0.000044	0.0
0.021829	0.000047	0.0
0.024184	0.000051	0.0
0.026902	0.000054	0.0
0.030066	0.000057	0.0
0.033783	0.000060	0.0
0.038202	0.000063	0.0
0.043529	0.000065	0.0
0.050065	0.000067	0.0
0.058268	0.000068	0.0
0.068875	0.000069	0.0
0.083163	0.000069	0.0
0.103589	0.000065	0.0
0.135622	0.000056	0.0
0.195086	0.000040	0.0
0.000004	-0.000000	0.0
0.000006	-0.000000	0.0
0.000009	-0.000000	0.0
0.000012	-0.000000	0.0
0.000014	-0.000000	0.0
0.000017	-0.000000	0.0
0.000021	-0.000000	0.0
0.000024	-0.000000	0.0
0.000028	-0.000000	0.0
0.000032	-0.000000	0.0
0.000037	-0.000000	0.0
0.000041	-0.000000	0.0
0.000047	-0.000000	0.0
0.000053	-0.000000	0.0
0.000059	-0.000000	0.0
0.000066	-0.000000	0.0
0.000074	-0.000000	0.0
0.000083	-0.000000	0.0
0.000092	-0.000000	0.0
0.000103	-0.000000	0.0
0.000114	-0.000000	0.0
0.000126	0.000000	0.0
0.000140	0.000000	0.0
0.000155	0.000000	0.0
0.000171	0.000000	0.0
0.000189	0.000000	0.0
0.000208	0.000000	0.0
0.000229	0.000000	0.0
0.000252	0.000000	0.0
0.000277	0.000000	0.0
0.000304	0.000000	0.0
0.000333	0.000000	0.0
0.000365	0.000000	0.0
0.000399	0.000001	0.0
0.000436	0.000001	0.0
0.000476	0.000001	0.0
0.000520	0.000001	0.0
0.000567	0.000001	0.0
0.000617	0.000001	0.0
0.000672	0.000001	0.0
0.000730	0.000001	0.0
0.000794	0.000001	0.0
0.000862	0.000001	0.0
0.000934	0.000002	0.0
0.001013	0.000002	0.0
0.001097	0.000002	0.0
0.001187	0.000002	0.0
0.001284	0.000002	0.0
0.001388	0.000003	0.0
0.001499	0.000003	0.0
0.001618	0.000003	0.0
0.001746	0.000003	0.0
0.001882	0.000004	0.0
0.002029	0.000004	0.0
0.002185	0.000004	0.0
0.002353	0.000005	0.0
0.002533	0.000005	0.0
0.002726	0.000006	0.0
0.002932	0.000006	0.0
0.003154	0.000007	0.0
0.003391	0.000007	0.0
0.003646	0.000008	0.0
0.003920	0.000009	0.0
0.004214	0.000009	0.0
0.004531	0.000010	0.0
0.004872	0.000011	0.0
0.005240	0.000012	0.0
0.005637	0.000013	0.0
0.006066	0.000014	0.0
0.006530	0.000015	0.0
0.007034	0.000017	0.0
0.007582	0.000018	0.0
0.008178	0.000020	0.0
0.008828	0.000021	0.0
0.009540	0.000023	0.0
0.010319	0.000025	0.0
0.011177	0.000027	0.0