# vtk DataFile Version 3.0
Header
ASCII
DATASET RECTILINEAR_GRID
DIMENSIONS 3 3 1
X_COORDINATES 3 double
0.030000 0.050000 0.070000 
Y_COORDINATES 3 double
0.030000 0.050000 0.070000 
Z_COORDINATES 1 double
0.0
POINT_DATA 9
VECTORS velocity double
0.000018	0.000027	0.0
0.000025	0.000028	0.0
0.000024	0.000018	0.0
0.000060	0.000042	0.0
0.000086	0.000023	0.0
0.000067	0.000029	0.0
0.000434	0.000023	0.0
0.000470	0.000022	0.0
0.000430	0.000020	0.0
